 
             +---------------------------------------------------+
             |                                                   |
             |                   WANNIER90                       |
             |                                                   |
             +---------------------------------------------------+
             |                                                   |
             |        Welcome to the Maximally-Localized         |
             |        Generalized Wannier Functions code         |
             |            http://www.wannier.org                 |
             |                                                   |
             |                                                   |
             |  Wannier90 Developer Group:                       |
             |    Giovanni Pizzi    (EPFL)                       |
             |    Valerio Vitale    (Cambridge)                  |
             |    David Vanderbilt  (Rutgers University)         |
             |    Nicola Marzari    (EPFL)                       |
             |    Ivo Souza         (Universidad del Pais Vasco) |
             |    Arash A. Mostofi  (Imperial College London)    |
             |    Jonathan R. Yates (University of Oxford)       |
             |                                                   |
             |  For the full list of Wannier90 3.x authors,      |
             |  please check the code documentation and the      |
             |  README on the GitHub page of the code            |
             |                                                   |
             |                                                   |
             |  Please cite                                      |
             |                                                   |
             |  [ref] "An updated version of Wannier90:          |
             |        A Tool for Obtaining Maximally Localised   |
             |        Wannier Functions", A. A. Mostofi,         |
             |        J. R. Yates, G. Pizzi, Y. S. Lee,          |
             |        I. Souza, D. Vanderbilt and N. Marzari,    |
             |        Comput. Phys. Commun. 185, 2309 (2014)     |
             |        http://dx.doi.org/10.1016/j.cpc.2014.05.003|
             |                                                   |
             |  in any publications arising from the use of      |
             |  this code. For the method please cite            |
             |                                                   |
             |  [ref] "Maximally Localized Generalised Wannier   |
             |         Functions for Composite Energy Bands"     |
             |         N. Marzari and D. Vanderbilt              |
             |         Phys. Rev. B 56 12847 (1997)              |
             |                                                   |
             |  [ref] "Maximally Localized Wannier Functions     |
             |         for Entangled Energy Bands"               |
             |         I. Souza, N. Marzari and D. Vanderbilt    |
             |         Phys. Rev. B 65 035109 (2001)             |
             |                                                   |
             |                                                   |
             | Copyright (c) 1996-2019                           |
             |        The Wannier90 Developer Group and          |
             |        individual contributors                    |
             |                                                   |
             |      Release: 3.0.0       27th February 2019      |
             |                                                   |
             | This program is free software; you can            |
             | redistribute it and/or modify it under the terms  |
             | of the GNU General Public License as published by |
             | the Free Software Foundation; either version 2 of |
             | the License, or (at your option) any later version|
             |                                                   |
             | This program is distributed in the hope that it   |
             | will be useful, but WITHOUT ANY WARRANTY; without |
             | even the implied warranty of MERCHANTABILITY or   |
             | FITNESS FOR A PARTICULAR PURPOSE. See the GNU     |
             | General Public License for more details.          |
             |                                                   |
             | You should have received a copy of the GNU General|
             | Public License along with this program; if not,   |
             | write to the Free Software Foundation, Inc.,      |
             | 675 Mass Ave, Cambridge, MA 02139, USA.           |
             |                                                   |
             +---------------------------------------------------+
             |    Execution started on 23Nov2019 at 12:47:46     |
             +---------------------------------------------------+
 
 ******************************************************************************
 * -> Using CODATA 2006 constant values                                       *
 *    (http://physics.nist.gov/cuu/Constants/index.html)                      *
 * -> Using Bohr value from CODATA                                            *
 ******************************************************************************
 

 Running in parallel on  24 CPUs

 
                                    ------
                                    SYSTEM
                                    ------
 
                              Lattice Vectors (Ang)
                    a_1     3.870930   0.000000   0.000000
                    a_2     0.000000   3.870930   0.000000
                    a_3     0.000000   0.000000   3.374500
 
                   Unit Cell Volume:      50.56384  (Ang^3)
 
                        Reciprocal-Space Vectors (Ang^-1)
                    b_1     1.623172   0.000000   0.000000
                    b_2     0.000000   1.623172   0.000000
                    b_3     0.000000   0.000000   1.861960
  
 *----------------------------------------------------------------------------*
 |   Site       Fractional Coordinate          Cartesian Coordinate (Ang)     |
 +----------------------------------------------------------------------------+
 | O    1   0.00000   0.50000   0.00000   |    0.00000   1.93546   0.00000    |
 | O    2   0.50000   0.00000   0.00000   |    1.93546   0.00000   0.00000    |
 | La   1   0.50000   0.50000   0.50000   |    1.93546   1.93546   1.68725    |
 | Ni   1   0.00000   0.00000   0.00000   |    0.00000   0.00000   0.00000    |
 *----------------------------------------------------------------------------*
                                -----------
                                PROJECTIONS
                                -----------
  
 +----------------------------------------------------------------------------+
 |     Frac. Coord.   l mr  r        z-axis               x-axis          Z/a |
 +----------------------------------------------------------------------------+
 |  0.50  0.50  0.50  2  1  1  0.000  0.000  1.000  1.000  0.000  0.000   1.0 |
 |  0.50  0.50  0.50  2  5  1  0.000  0.000  1.000  1.000  0.000  0.000   1.0 |
 |  0.00  0.00  0.00  2  1  1  0.000  0.000  1.000  1.000  0.000  0.000   1.0 |
 |  0.00  0.00  0.00  2  2  1  0.000  0.000  1.000  1.000  0.000  0.000   1.0 |
 |  0.00  0.00  0.00  2  3  1  0.000  0.000  1.000  1.000  0.000  0.000   1.0 |
 |  0.00  0.00  0.00  2  4  1  0.000  0.000  1.000  1.000  0.000  0.000   1.0 |
 |  0.00  0.00  0.00  2  5  1  0.000  0.000  1.000  1.000  0.000  0.000   1.0 |
 +----------------------------------------------------------------------------+
  
                                ------------
                                K-POINT GRID
                                ------------
  
             Grid size = 10 x 10 x 10      Total points = 1000
  
 *----------------------------------------------------------------------------*
 | k-point      Fractional Coordinate        Cartesian Coordinate (Ang^-1)    |
 +----------------------------------------------------------------------------+
 |     1    0.00000   0.00000   0.00000   |    0.00000   0.00000   0.00000    |
 |     2    0.10000   0.00000   0.00000   |    0.16232   0.00000   0.00000    |
 |     3    0.20000   0.00000   0.00000   |    0.32463   0.00000   0.00000    |
 |     4    0.30000   0.00000   0.00000   |    0.48695   0.00000   0.00000    |
 |     5    0.40000   0.00000   0.00000   |    0.64927   0.00000   0.00000    |
 |     6    0.50000   0.00000   0.00000   |    0.81159   0.00000   0.00000    |
 |     7    0.10000   0.10000   0.00000   |    0.16232   0.16232   0.00000    |
 |     8    0.20000   0.10000   0.00000   |    0.32463   0.16232   0.00000    |
 |     9    0.30000   0.10000   0.00000   |    0.48695   0.16232   0.00000    |
 |    10    0.40000   0.10000   0.00000   |    0.64927   0.16232   0.00000    |
 |    11    0.50000   0.10000   0.00000   |    0.81159   0.16232   0.00000    |
 |    12    0.20000   0.20000   0.00000   |    0.32463   0.32463   0.00000    |
 |    13    0.30000   0.20000   0.00000   |    0.48695   0.32463   0.00000    |
 |    14    0.40000   0.20000   0.00000   |    0.64927   0.32463   0.00000    |
 |    15    0.50000   0.20000   0.00000   |    0.81159   0.32463   0.00000    |
 |    16    0.30000   0.30000   0.00000   |    0.48695   0.48695   0.00000    |
 |    17    0.40000   0.30000   0.00000   |    0.64927   0.48695   0.00000    |
 |    18    0.50000   0.30000   0.00000   |    0.81159   0.48695   0.00000    |
 |    19    0.40000   0.40000   0.00000   |    0.64927   0.64927   0.00000    |
 |    20    0.50000   0.40000   0.00000   |    0.81159   0.64927   0.00000    |
 |    21    0.50000   0.50000   0.00000   |    0.81159   0.81159   0.00000    |
 |    22    0.00000   0.00000   0.10000   |    0.00000   0.00000   0.18620    |
 |    23    0.10000   0.00000   0.10000   |    0.16232   0.00000   0.18620    |
 |    24    0.20000   0.00000   0.10000   |    0.32463   0.00000   0.18620    |
 |    25    0.30000   0.00000   0.10000   |    0.48695   0.00000   0.18620    |
 |    26    0.40000   0.00000   0.10000   |    0.64927   0.00000   0.18620    |
 |    27    0.50000   0.00000   0.10000   |    0.81159   0.00000   0.18620    |
 |    28    0.10000   0.10000   0.10000   |    0.16232   0.16232   0.18620    |
 |    29    0.20000   0.10000   0.10000   |    0.32463   0.16232   0.18620    |
 |    30    0.30000   0.10000   0.10000   |    0.48695   0.16232   0.18620    |
 |    31    0.40000   0.10000   0.10000   |    0.64927   0.16232   0.18620    |
 |    32    0.50000   0.10000   0.10000   |    0.81159   0.16232   0.18620    |
 |    33    0.20000   0.20000   0.10000   |    0.32463   0.32463   0.18620    |
 |    34    0.30000   0.20000   0.10000   |    0.48695   0.32463   0.18620    |
 |    35    0.40000   0.20000   0.10000   |    0.64927   0.32463   0.18620    |
 |    36    0.50000   0.20000   0.10000   |    0.81159   0.32463   0.18620    |
 |    37    0.30000   0.30000   0.10000   |    0.48695   0.48695   0.18620    |
 |    38    0.40000   0.30000   0.10000   |    0.64927   0.48695   0.18620    |
 |    39    0.50000   0.30000   0.10000   |    0.81159   0.48695   0.18620    |
 |    40    0.40000   0.40000   0.10000   |    0.64927   0.64927   0.18620    |
 |    41    0.50000   0.40000   0.10000   |    0.81159   0.64927   0.18620    |
 |    42    0.50000   0.50000   0.10000   |    0.81159   0.81159   0.18620    |
 |    43    0.00000   0.00000   0.20000   |    0.00000   0.00000   0.37239    |
 |    44    0.10000   0.00000   0.20000   |    0.16232   0.00000   0.37239    |
 |    45    0.20000   0.00000   0.20000   |    0.32463   0.00000   0.37239    |
 |    46    0.30000   0.00000   0.20000   |    0.48695   0.00000   0.37239    |
 |    47    0.40000   0.00000   0.20000   |    0.64927   0.00000   0.37239    |
 |    48    0.50000   0.00000   0.20000   |    0.81159   0.00000   0.37239    |
 |    49    0.10000   0.10000   0.20000   |    0.16232   0.16232   0.37239    |
 |    50    0.20000   0.10000   0.20000   |    0.32463   0.16232   0.37239    |
 |    51    0.30000   0.10000   0.20000   |    0.48695   0.16232   0.37239    |
 |    52    0.40000   0.10000   0.20000   |    0.64927   0.16232   0.37239    |
 |    53    0.50000   0.10000   0.20000   |    0.81159   0.16232   0.37239    |
 |    54    0.20000   0.20000   0.20000   |    0.32463   0.32463   0.37239    |
 |    55    0.30000   0.20000   0.20000   |    0.48695   0.32463   0.37239    |
 |    56    0.40000   0.20000   0.20000   |    0.64927   0.32463   0.37239    |
 |    57    0.50000   0.20000   0.20000   |    0.81159   0.32463   0.37239    |
 |    58    0.30000   0.30000   0.20000   |    0.48695   0.48695   0.37239    |
 |    59    0.40000   0.30000   0.20000   |    0.64927   0.48695   0.37239    |
 |    60    0.50000   0.30000   0.20000   |    0.81159   0.48695   0.37239    |
 |    61    0.40000   0.40000   0.20000   |    0.64927   0.64927   0.37239    |
 |    62    0.50000   0.40000   0.20000   |    0.81159   0.64927   0.37239    |
 |    63    0.50000   0.50000   0.20000   |    0.81159   0.81159   0.37239    |
 |    64    0.00000   0.00000   0.30000   |    0.00000   0.00000   0.55859    |
 |    65    0.10000   0.00000   0.30000   |    0.16232   0.00000   0.55859    |
 |    66    0.20000   0.00000   0.30000   |    0.32463   0.00000   0.55859    |
 |    67    0.30000   0.00000   0.30000   |    0.48695   0.00000   0.55859    |
 |    68    0.40000   0.00000   0.30000   |    0.64927   0.00000   0.55859    |
 |    69    0.50000   0.00000   0.30000   |    0.81159   0.00000   0.55859    |
 |    70    0.10000   0.10000   0.30000   |    0.16232   0.16232   0.55859    |
 |    71    0.20000   0.10000   0.30000   |    0.32463   0.16232   0.55859    |
 |    72    0.30000   0.10000   0.30000   |    0.48695   0.16232   0.55859    |
 |    73    0.40000   0.10000   0.30000   |    0.64927   0.16232   0.55859    |
 |    74    0.50000   0.10000   0.30000   |    0.81159   0.16232   0.55859    |
 |    75    0.20000   0.20000   0.30000   |    0.32463   0.32463   0.55859    |
 |    76    0.30000   0.20000   0.30000   |    0.48695   0.32463   0.55859    |
 |    77    0.40000   0.20000   0.30000   |    0.64927   0.32463   0.55859    |
 |    78    0.50000   0.20000   0.30000   |    0.81159   0.32463   0.55859    |
 |    79    0.30000   0.30000   0.30000   |    0.48695   0.48695   0.55859    |
 |    80    0.40000   0.30000   0.30000   |    0.64927   0.48695   0.55859    |
 |    81    0.50000   0.30000   0.30000   |    0.81159   0.48695   0.55859    |
 |    82    0.40000   0.40000   0.30000   |    0.64927   0.64927   0.55859    |
 |    83    0.50000   0.40000   0.30000   |    0.81159   0.64927   0.55859    |
 |    84    0.50000   0.50000   0.30000   |    0.81159   0.81159   0.55859    |
 |    85    0.00000   0.00000   0.40000   |    0.00000   0.00000   0.74478    |
 |    86    0.10000   0.00000   0.40000   |    0.16232   0.00000   0.74478    |
 |    87    0.20000   0.00000   0.40000   |    0.32463   0.00000   0.74478    |
 |    88    0.30000   0.00000   0.40000   |    0.48695   0.00000   0.74478    |
 |    89    0.40000   0.00000   0.40000   |    0.64927   0.00000   0.74478    |
 |    90    0.50000   0.00000   0.40000   |    0.81159   0.00000   0.74478    |
 |    91    0.10000   0.10000   0.40000   |    0.16232   0.16232   0.74478    |
 |    92    0.20000   0.10000   0.40000   |    0.32463   0.16232   0.74478    |
 |    93    0.30000   0.10000   0.40000   |    0.48695   0.16232   0.74478    |
 |    94    0.40000   0.10000   0.40000   |    0.64927   0.16232   0.74478    |
 |    95    0.50000   0.10000   0.40000   |    0.81159   0.16232   0.74478    |
 |    96    0.20000   0.20000   0.40000   |    0.32463   0.32463   0.74478    |
 |    97    0.30000   0.20000   0.40000   |    0.48695   0.32463   0.74478    |
 |    98    0.40000   0.20000   0.40000   |    0.64927   0.32463   0.74478    |
 |    99    0.50000   0.20000   0.40000   |    0.81159   0.32463   0.74478    |
 |   100    0.30000   0.30000   0.40000   |    0.48695   0.48695   0.74478    |
 |   101    0.40000   0.30000   0.40000   |    0.64927   0.48695   0.74478    |
 |   102    0.50000   0.30000   0.40000   |    0.81159   0.48695   0.74478    |
 |   103    0.40000   0.40000   0.40000   |    0.64927   0.64927   0.74478    |
 |   104    0.50000   0.40000   0.40000   |    0.81159   0.64927   0.74478    |
 |   105    0.50000   0.50000   0.40000   |    0.81159   0.81159   0.74478    |
 |   106    0.00000   0.00000   0.50000   |    0.00000   0.00000   0.93098    |
 |   107    0.10000   0.00000   0.50000   |    0.16232   0.00000   0.93098    |
 |   108    0.20000   0.00000   0.50000   |    0.32463   0.00000   0.93098    |
 |   109    0.30000   0.00000   0.50000   |    0.48695   0.00000   0.93098    |
 |   110    0.40000   0.00000   0.50000   |    0.64927   0.00000   0.93098    |
 |   111    0.50000   0.00000   0.50000   |    0.81159   0.00000   0.93098    |
 |   112    0.10000   0.10000   0.50000   |    0.16232   0.16232   0.93098    |
 |   113    0.20000   0.10000   0.50000   |    0.32463   0.16232   0.93098    |
 |   114    0.30000   0.10000   0.50000   |    0.48695   0.16232   0.93098    |
 |   115    0.40000   0.10000   0.50000   |    0.64927   0.16232   0.93098    |
 |   116    0.50000   0.10000   0.50000   |    0.81159   0.16232   0.93098    |
 |   117    0.20000   0.20000   0.50000   |    0.32463   0.32463   0.93098    |
 |   118    0.30000   0.20000   0.50000   |    0.48695   0.32463   0.93098    |
 |   119    0.40000   0.20000   0.50000   |    0.64927   0.32463   0.93098    |
 |   120    0.50000   0.20000   0.50000   |    0.81159   0.32463   0.93098    |
 |   121    0.30000   0.30000   0.50000   |    0.48695   0.48695   0.93098    |
 |   122    0.40000   0.30000   0.50000   |    0.64927   0.48695   0.93098    |
 |   123    0.50000   0.30000   0.50000   |    0.81159   0.48695   0.93098    |
 |   124    0.40000   0.40000   0.50000   |    0.64927   0.64927   0.93098    |
 |   125    0.50000   0.40000   0.50000   |    0.81159   0.64927   0.93098    |
 |   126    0.50000   0.50000   0.50000   |    0.81159   0.81159   0.93098    |
 |   127   -0.10000   0.00000   0.00000   |   -0.16232   0.00000   0.00000    |
 |   128    0.00000   0.10000   0.00000   |    0.00000   0.16232   0.00000    |
 |   129    0.00000  -0.10000   0.00000   |    0.00000  -0.16232   0.00000    |
 |   130   -0.20000   0.00000   0.00000   |   -0.32463   0.00000   0.00000    |
 |   131    0.00000   0.20000   0.00000   |    0.00000   0.32463   0.00000    |
 |   132    0.00000  -0.20000   0.00000   |    0.00000  -0.32463   0.00000    |
 |   133   -0.30000   0.00000   0.00000   |   -0.48695   0.00000   0.00000    |
 |   134    0.00000   0.30000   0.00000   |    0.00000   0.48695   0.00000    |
 |   135    0.00000  -0.30000   0.00000   |    0.00000  -0.48695   0.00000    |
 |   136   -0.40000   0.00000   0.00000   |   -0.64927   0.00000   0.00000    |
 |   137    0.00000   0.40000   0.00000   |    0.00000   0.64927   0.00000    |
 |   138    0.00000  -0.40000   0.00000   |    0.00000  -0.64927   0.00000    |
 |   139    0.00000   0.50000   0.00000   |    0.00000   0.81159   0.00000    |
 |   140   -0.10000  -0.10000   0.00000   |   -0.16232  -0.16232   0.00000    |
 |   141   -0.10000   0.10000   0.00000   |   -0.16232   0.16232   0.00000    |
 |   142    0.10000  -0.10000   0.00000   |    0.16232  -0.16232   0.00000    |
 |   143   -0.20000  -0.10000   0.00000   |   -0.32463  -0.16232   0.00000    |
 |   144   -0.10000   0.20000   0.00000   |   -0.16232   0.32463   0.00000    |
 |   145    0.10000  -0.20000   0.00000   |    0.16232  -0.32463   0.00000    |
 |   146   -0.20000   0.10000   0.00000   |   -0.32463   0.16232   0.00000    |
 |   147    0.20000  -0.10000   0.00000   |    0.32463  -0.16232   0.00000    |
 |   148    0.10000   0.20000   0.00000   |    0.16232   0.32463   0.00000    |
 |   149   -0.10000  -0.20000   0.00000   |   -0.16232  -0.32463   0.00000    |
 |   150   -0.30000  -0.10000   0.00000   |   -0.48695  -0.16232   0.00000    |
 |   151   -0.10000   0.30000   0.00000   |   -0.16232   0.48695   0.00000    |
 |   152    0.10000  -0.30000   0.00000   |    0.16232  -0.48695   0.00000    |
 |   153   -0.30000   0.10000   0.00000   |   -0.48695   0.16232   0.00000    |
 |   154    0.30000  -0.10000   0.00000   |    0.48695  -0.16232   0.00000    |
 |   155    0.10000   0.30000   0.00000   |    0.16232   0.48695   0.00000    |
 |   156   -0.10000  -0.30000   0.00000   |   -0.16232  -0.48695   0.00000    |
 |   157   -0.40000  -0.10000   0.00000   |   -0.64927  -0.16232   0.00000    |
 |   158   -0.10000   0.40000   0.00000   |   -0.16232   0.64927   0.00000    |
 |   159    0.10000  -0.40000   0.00000   |    0.16232  -0.64927   0.00000    |
 |   160   -0.40000   0.10000   0.00000   |   -0.64927   0.16232   0.00000    |
 |   161    0.40000  -0.10000   0.00000   |    0.64927  -0.16232   0.00000    |
 |   162    0.10000   0.40000   0.00000   |    0.16232   0.64927   0.00000    |
 |   163   -0.10000  -0.40000   0.00000   |   -0.16232  -0.64927   0.00000    |
 |   164   -0.50000  -0.10000   0.00000   |   -0.81159  -0.16232   0.00000    |
 |   165   -0.10000   0.50000   0.00000   |   -0.16232   0.81159   0.00000    |
 |   166    0.10000  -0.50000   0.00000   |    0.16232  -0.81159   0.00000    |
 |   167   -0.20000  -0.20000   0.00000   |   -0.32463  -0.32463   0.00000    |
 |   168   -0.20000   0.20000   0.00000   |   -0.32463   0.32463   0.00000    |
 |   169    0.20000  -0.20000   0.00000   |    0.32463  -0.32463   0.00000    |
 |   170   -0.30000  -0.20000   0.00000   |   -0.48695  -0.32463   0.00000    |
 |   171   -0.20000   0.30000   0.00000   |   -0.32463   0.48695   0.00000    |
 |   172    0.20000  -0.30000   0.00000   |    0.32463  -0.48695   0.00000    |
 |   173   -0.30000   0.20000   0.00000   |   -0.48695   0.32463   0.00000    |
 |   174    0.30000  -0.20000   0.00000   |    0.48695  -0.32463   0.00000    |
 |   175    0.20000   0.30000   0.00000   |    0.32463   0.48695   0.00000    |
 |   176   -0.20000  -0.30000   0.00000   |   -0.32463  -0.48695   0.00000    |
 |   177   -0.40000  -0.20000   0.00000   |   -0.64927  -0.32463   0.00000    |
 |   178   -0.20000   0.40000   0.00000   |   -0.32463   0.64927   0.00000    |
 |   179    0.20000  -0.40000   0.00000   |    0.32463  -0.64927   0.00000    |
 |   180   -0.40000   0.20000   0.00000   |   -0.64927   0.32463   0.00000    |
 |   181    0.40000  -0.20000   0.00000   |    0.64927  -0.32463   0.00000    |
 |   182    0.20000   0.40000   0.00000   |    0.32463   0.64927   0.00000    |
 |   183   -0.20000  -0.40000   0.00000   |   -0.32463  -0.64927   0.00000    |
 |   184   -0.50000  -0.20000   0.00000   |   -0.81159  -0.32463   0.00000    |
 |   185   -0.20000   0.50000   0.00000   |   -0.32463   0.81159   0.00000    |
 |   186    0.20000  -0.50000   0.00000   |    0.32463  -0.81159   0.00000    |
 |   187   -0.30000  -0.30000   0.00000   |   -0.48695  -0.48695   0.00000    |
 |   188   -0.30000   0.30000   0.00000   |   -0.48695   0.48695   0.00000    |
 |   189    0.30000  -0.30000   0.00000   |    0.48695  -0.48695   0.00000    |
 |   190   -0.40000  -0.30000   0.00000   |   -0.64927  -0.48695   0.00000    |
 |   191   -0.30000   0.40000   0.00000   |   -0.48695   0.64927   0.00000    |
 |   192    0.30000  -0.40000   0.00000   |    0.48695  -0.64927   0.00000    |
 |   193   -0.40000   0.30000   0.00000   |   -0.64927   0.48695   0.00000    |
 |   194    0.40000  -0.30000   0.00000   |    0.64927  -0.48695   0.00000    |
 |   195    0.30000   0.40000   0.00000   |    0.48695   0.64927   0.00000    |
 |   196   -0.30000  -0.40000   0.00000   |   -0.48695  -0.64927   0.00000    |
 |   197   -0.50000  -0.30000   0.00000   |   -0.81159  -0.48695   0.00000    |
 |   198   -0.30000   0.50000   0.00000   |   -0.48695   0.81159   0.00000    |
 |   199    0.30000  -0.50000   0.00000   |    0.48695  -0.81159   0.00000    |
 |   200   -0.40000  -0.40000   0.00000   |   -0.64927  -0.64927   0.00000    |
 |   201   -0.40000   0.40000   0.00000   |   -0.64927   0.64927   0.00000    |
 |   202    0.40000  -0.40000   0.00000   |    0.64927  -0.64927   0.00000    |
 |   203   -0.50000  -0.40000   0.00000   |   -0.81159  -0.64927   0.00000    |
 |   204   -0.40000   0.50000   0.00000   |   -0.64927   0.81159   0.00000    |
 |   205    0.40000  -0.50000   0.00000   |    0.64927  -0.81159   0.00000    |
 |   206    0.00000   0.00000  -0.10000   |    0.00000   0.00000  -0.18620    |
 |   207   -0.10000   0.00000  -0.10000   |   -0.16232   0.00000  -0.18620    |
 |   208    0.00000   0.10000   0.10000   |    0.00000   0.16232   0.18620    |
 |   209    0.00000  -0.10000  -0.10000   |    0.00000  -0.16232  -0.18620    |
 |   210   -0.10000   0.00000   0.10000   |   -0.16232   0.00000   0.18620    |
 |   211    0.10000   0.00000  -0.10000   |    0.16232   0.00000  -0.18620    |
 |   212    0.00000  -0.10000   0.10000   |    0.00000  -0.16232   0.18620    |
 |   213    0.00000   0.10000  -0.10000   |    0.00000   0.16232  -0.18620    |
 |   214   -0.20000   0.00000  -0.10000   |   -0.32463   0.00000  -0.18620    |
 |   215    0.00000   0.20000   0.10000   |    0.00000   0.32463   0.18620    |
 |   216    0.00000  -0.20000  -0.10000   |    0.00000  -0.32463  -0.18620    |
 |   217   -0.20000   0.00000   0.10000   |   -0.32463   0.00000   0.18620    |
 |   218    0.20000   0.00000  -0.10000   |    0.32463   0.00000  -0.18620    |
 |   219    0.00000  -0.20000   0.10000   |    0.00000  -0.32463   0.18620    |
 |   220    0.00000   0.20000  -0.10000   |    0.00000   0.32463  -0.18620    |
 |   221   -0.30000   0.00000  -0.10000   |   -0.48695   0.00000  -0.18620    |
 |   222    0.00000   0.30000   0.10000   |    0.00000   0.48695   0.18620    |
 |   223    0.00000  -0.30000  -0.10000   |    0.00000  -0.48695  -0.18620    |
 |   224   -0.30000   0.00000   0.10000   |   -0.48695   0.00000   0.18620    |
 |   225    0.30000   0.00000  -0.10000   |    0.48695   0.00000  -0.18620    |
 |   226    0.00000  -0.30000   0.10000   |    0.00000  -0.48695   0.18620    |
 |   227    0.00000   0.30000  -0.10000   |    0.00000   0.48695  -0.18620    |
 |   228   -0.40000   0.00000  -0.10000   |   -0.64927   0.00000  -0.18620    |
 |   229    0.00000   0.40000   0.10000   |    0.00000   0.64927   0.18620    |
 |   230    0.00000  -0.40000  -0.10000   |    0.00000  -0.64927  -0.18620    |
 |   231   -0.40000   0.00000   0.10000   |   -0.64927   0.00000   0.18620    |
 |   232    0.40000   0.00000  -0.10000   |    0.64927   0.00000  -0.18620    |
 |   233    0.00000  -0.40000   0.10000   |    0.00000  -0.64927   0.18620    |
 |   234    0.00000   0.40000  -0.10000   |    0.00000   0.64927  -0.18620    |
 |   235   -0.50000   0.00000  -0.10000   |   -0.81159   0.00000  -0.18620    |
 |   236    0.00000   0.50000   0.10000   |    0.00000   0.81159   0.18620    |
 |   237    0.00000  -0.50000  -0.10000   |    0.00000  -0.81159  -0.18620    |
 |   238   -0.10000  -0.10000  -0.10000   |   -0.16232  -0.16232  -0.18620    |
 |   239   -0.10000   0.10000   0.10000   |   -0.16232   0.16232   0.18620    |
 |   240    0.10000  -0.10000  -0.10000   |    0.16232  -0.16232  -0.18620    |
 |   241   -0.10000  -0.10000   0.10000   |   -0.16232  -0.16232   0.18620    |
 |   242    0.10000   0.10000  -0.10000   |    0.16232   0.16232  -0.18620    |
 |   243    0.10000  -0.10000   0.10000   |    0.16232  -0.16232   0.18620    |
 |   244   -0.10000   0.10000  -0.10000   |   -0.16232   0.16232  -0.18620    |
 |   245   -0.20000  -0.10000  -0.10000   |   -0.32463  -0.16232  -0.18620    |
 |   246   -0.10000   0.20000   0.10000   |   -0.16232   0.32463   0.18620    |
 |   247    0.10000  -0.20000  -0.10000   |    0.16232  -0.32463  -0.18620    |
 |   248   -0.20000  -0.10000   0.10000   |   -0.32463  -0.16232   0.18620    |
 |   249    0.20000   0.10000  -0.10000   |    0.32463   0.16232  -0.18620    |
 |   250    0.10000  -0.20000   0.10000   |    0.16232  -0.32463   0.18620    |
 |   251   -0.10000   0.20000  -0.10000   |   -0.16232   0.32463  -0.18620    |
 |   252   -0.20000   0.10000  -0.10000   |   -0.32463   0.16232  -0.18620    |
 |   253    0.20000  -0.10000   0.10000   |    0.32463  -0.16232   0.18620    |
 |   254    0.10000   0.20000  -0.10000   |    0.16232   0.32463  -0.18620    |
 |   255   -0.10000  -0.20000   0.10000   |   -0.16232  -0.32463   0.18620    |
 |   256    0.20000  -0.10000  -0.10000   |    0.32463  -0.16232  -0.18620    |
 |   257   -0.20000   0.10000   0.10000   |   -0.32463   0.16232   0.18620    |
 |   258   -0.10000  -0.20000  -0.10000   |   -0.16232  -0.32463  -0.18620    |
 |   259    0.10000   0.20000   0.10000   |    0.16232   0.32463   0.18620    |
 |   260   -0.30000  -0.10000  -0.10000   |   -0.48695  -0.16232  -0.18620    |
 |   261   -0.10000   0.30000   0.10000   |   -0.16232   0.48695   0.18620    |
 |   262    0.10000  -0.30000  -0.10000   |    0.16232  -0.48695  -0.18620    |
 |   263   -0.30000  -0.10000   0.10000   |   -0.48695  -0.16232   0.18620    |
 |   264    0.30000   0.10000  -0.10000   |    0.48695   0.16232  -0.18620    |
 |   265    0.10000  -0.30000   0.10000   |    0.16232  -0.48695   0.18620    |
 |   266   -0.10000   0.30000  -0.10000   |   -0.16232   0.48695  -0.18620    |
 |   267   -0.30000   0.10000  -0.10000   |   -0.48695   0.16232  -0.18620    |
 |   268    0.30000  -0.10000   0.10000   |    0.48695  -0.16232   0.18620    |
 |   269    0.10000   0.30000  -0.10000   |    0.16232   0.48695  -0.18620    |
 |   270   -0.10000  -0.30000   0.10000   |   -0.16232  -0.48695   0.18620    |
 |   271    0.30000  -0.10000  -0.10000   |    0.48695  -0.16232  -0.18620    |
 |   272   -0.30000   0.10000   0.10000   |   -0.48695   0.16232   0.18620    |
 |   273   -0.10000  -0.30000  -0.10000   |   -0.16232  -0.48695  -0.18620    |
 |   274    0.10000   0.30000   0.10000   |    0.16232   0.48695   0.18620    |
 |   275   -0.40000  -0.10000  -0.10000   |   -0.64927  -0.16232  -0.18620    |
 |   276   -0.10000   0.40000   0.10000   |   -0.16232   0.64927   0.18620    |
 |   277    0.10000  -0.40000  -0.10000   |    0.16232  -0.64927  -0.18620    |
 |   278   -0.40000  -0.10000   0.10000   |   -0.64927  -0.16232   0.18620    |
 |   279    0.40000   0.10000  -0.10000   |    0.64927   0.16232  -0.18620    |
 |   280    0.10000  -0.40000   0.10000   |    0.16232  -0.64927   0.18620    |
 |   281   -0.10000   0.40000  -0.10000   |   -0.16232   0.64927  -0.18620    |
 |   282   -0.40000   0.10000  -0.10000   |   -0.64927   0.16232  -0.18620    |
 |   283    0.40000  -0.10000   0.10000   |    0.64927  -0.16232   0.18620    |
 |   284    0.10000   0.40000  -0.10000   |    0.16232   0.64927  -0.18620    |
 |   285   -0.10000  -0.40000   0.10000   |   -0.16232  -0.64927   0.18620    |
 |   286    0.40000  -0.10000  -0.10000   |    0.64927  -0.16232  -0.18620    |
 |   287   -0.40000   0.10000   0.10000   |   -0.64927   0.16232   0.18620    |
 |   288   -0.10000  -0.40000  -0.10000   |   -0.16232  -0.64927  -0.18620    |
 |   289    0.10000   0.40000   0.10000   |    0.16232   0.64927   0.18620    |
 |   290   -0.50000  -0.10000  -0.10000   |   -0.81159  -0.16232  -0.18620    |
 |   291   -0.10000   0.50000   0.10000   |   -0.16232   0.81159   0.18620    |
 |   292    0.10000  -0.50000  -0.10000   |    0.16232  -0.81159  -0.18620    |
 |   293   -0.50000  -0.10000   0.10000   |   -0.81159  -0.16232   0.18620    |
 |   294    0.50000   0.10000  -0.10000   |    0.81159   0.16232  -0.18620    |
 |   295    0.10000  -0.50000   0.10000   |    0.16232  -0.81159   0.18620    |
 |   296   -0.10000   0.50000  -0.10000   |   -0.16232   0.81159  -0.18620    |
 |   297   -0.20000  -0.20000  -0.10000   |   -0.32463  -0.32463  -0.18620    |
 |   298   -0.20000   0.20000   0.10000   |   -0.32463   0.32463   0.18620    |
 |   299    0.20000  -0.20000  -0.10000   |    0.32463  -0.32463  -0.18620    |
 |   300   -0.20000  -0.20000   0.10000   |   -0.32463  -0.32463   0.18620    |
 |   301    0.20000   0.20000  -0.10000   |    0.32463   0.32463  -0.18620    |
 |   302    0.20000  -0.20000   0.10000   |    0.32463  -0.32463   0.18620    |
 |   303   -0.20000   0.20000  -0.10000   |   -0.32463   0.32463  -0.18620    |
 |   304   -0.30000  -0.20000  -0.10000   |   -0.48695  -0.32463  -0.18620    |
 |   305   -0.20000   0.30000   0.10000   |   -0.32463   0.48695   0.18620    |
 |   306    0.20000  -0.30000  -0.10000   |    0.32463  -0.48695  -0.18620    |
 |   307   -0.30000  -0.20000   0.10000   |   -0.48695  -0.32463   0.18620    |
 |   308    0.30000   0.20000  -0.10000   |    0.48695   0.32463  -0.18620    |
 |   309    0.20000  -0.30000   0.10000   |    0.32463  -0.48695   0.18620    |
 |   310   -0.20000   0.30000  -0.10000   |   -0.32463   0.48695  -0.18620    |
 |   311   -0.30000   0.20000  -0.10000   |   -0.48695   0.32463  -0.18620    |
 |   312    0.30000  -0.20000   0.10000   |    0.48695  -0.32463   0.18620    |
 |   313    0.20000   0.30000  -0.10000   |    0.32463   0.48695  -0.18620    |
 |   314   -0.20000  -0.30000   0.10000   |   -0.32463  -0.48695   0.18620    |
 |   315    0.30000  -0.20000  -0.10000   |    0.48695  -0.32463  -0.18620    |
 |   316   -0.30000   0.20000   0.10000   |   -0.48695   0.32463   0.18620    |
 |   317   -0.20000  -0.30000  -0.10000   |   -0.32463  -0.48695  -0.18620    |
 |   318    0.20000   0.30000   0.10000   |    0.32463   0.48695   0.18620    |
 |   319   -0.40000  -0.20000  -0.10000   |   -0.64927  -0.32463  -0.18620    |
 |   320   -0.20000   0.40000   0.10000   |   -0.32463   0.64927   0.18620    |
 |   321    0.20000  -0.40000  -0.10000   |    0.32463  -0.64927  -0.18620    |
 |   322   -0.40000  -0.20000   0.10000   |   -0.64927  -0.32463   0.18620    |
 |   323    0.40000   0.20000  -0.10000   |    0.64927   0.32463  -0.18620    |
 |   324    0.20000  -0.40000   0.10000   |    0.32463  -0.64927   0.18620    |
 |   325   -0.20000   0.40000  -0.10000   |   -0.32463   0.64927  -0.18620    |
 |   326   -0.40000   0.20000  -0.10000   |   -0.64927   0.32463  -0.18620    |
 |   327    0.40000  -0.20000   0.10000   |    0.64927  -0.32463   0.18620    |
 |   328    0.20000   0.40000  -0.10000   |    0.32463   0.64927  -0.18620    |
 |   329   -0.20000  -0.40000   0.10000   |   -0.32463  -0.64927   0.18620    |
 |   330    0.40000  -0.20000  -0.10000   |    0.64927  -0.32463  -0.18620    |
 |   331   -0.40000   0.20000   0.10000   |   -0.64927   0.32463   0.18620    |
 |   332   -0.20000  -0.40000  -0.10000   |   -0.32463  -0.64927  -0.18620    |
 |   333    0.20000   0.40000   0.10000   |    0.32463   0.64927   0.18620    |
 |   334   -0.50000  -0.20000  -0.10000   |   -0.81159  -0.32463  -0.18620    |
 |   335   -0.20000   0.50000   0.10000   |   -0.32463   0.81159   0.18620    |
 |   336    0.20000  -0.50000  -0.10000   |    0.32463  -0.81159  -0.18620    |
 |   337   -0.50000  -0.20000   0.10000   |   -0.81159  -0.32463   0.18620    |
 |   338    0.50000   0.20000  -0.10000   |    0.81159   0.32463  -0.18620    |
 |   339    0.20000  -0.50000   0.10000   |    0.32463  -0.81159   0.18620    |
 |   340   -0.20000   0.50000  -0.10000   |   -0.32463   0.81159  -0.18620    |
 |   341   -0.30000  -0.30000  -0.10000   |   -0.48695  -0.48695  -0.18620    |
 |   342   -0.30000   0.30000   0.10000   |   -0.48695   0.48695   0.18620    |
 |   343    0.30000  -0.30000  -0.10000   |    0.48695  -0.48695  -0.18620    |
 |   344   -0.30000  -0.30000   0.10000   |   -0.48695  -0.48695   0.18620    |
 |   345    0.30000   0.30000  -0.10000   |    0.48695   0.48695  -0.18620    |
 |   346    0.30000  -0.30000   0.10000   |    0.48695  -0.48695   0.18620    |
 |   347   -0.30000   0.30000  -0.10000   |   -0.48695   0.48695  -0.18620    |
 |   348   -0.40000  -0.30000  -0.10000   |   -0.64927  -0.48695  -0.18620    |
 |   349   -0.30000   0.40000   0.10000   |   -0.48695   0.64927   0.18620    |
 |   350    0.30000  -0.40000  -0.10000   |    0.48695  -0.64927  -0.18620    |
 |   351   -0.40000  -0.30000   0.10000   |   -0.64927  -0.48695   0.18620    |
 |   352    0.40000   0.30000  -0.10000   |    0.64927   0.48695  -0.18620    |
 |   353    0.30000  -0.40000   0.10000   |    0.48695  -0.64927   0.18620    |
 |   354   -0.30000   0.40000  -0.10000   |   -0.48695   0.64927  -0.18620    |
 |   355   -0.40000   0.30000  -0.10000   |   -0.64927   0.48695  -0.18620    |
 |   356    0.40000  -0.30000   0.10000   |    0.64927  -0.48695   0.18620    |
 |   357    0.30000   0.40000  -0.10000   |    0.48695   0.64927  -0.18620    |
 |   358   -0.30000  -0.40000   0.10000   |   -0.48695  -0.64927   0.18620    |
 |   359    0.40000  -0.30000  -0.10000   |    0.64927  -0.48695  -0.18620    |
 |   360   -0.40000   0.30000   0.10000   |   -0.64927   0.48695   0.18620    |
 |   361   -0.30000  -0.40000  -0.10000   |   -0.48695  -0.64927  -0.18620    |
 |   362    0.30000   0.40000   0.10000   |    0.48695   0.64927   0.18620    |
 |   363   -0.50000  -0.30000  -0.10000   |   -0.81159  -0.48695  -0.18620    |
 |   364   -0.30000   0.50000   0.10000   |   -0.48695   0.81159   0.18620    |
 |   365    0.30000  -0.50000  -0.10000   |    0.48695  -0.81159  -0.18620    |
 |   366   -0.50000  -0.30000   0.10000   |   -0.81159  -0.48695   0.18620    |
 |   367    0.50000   0.30000  -0.10000   |    0.81159   0.48695  -0.18620    |
 |   368    0.30000  -0.50000   0.10000   |    0.48695  -0.81159   0.18620    |
 |   369   -0.30000   0.50000  -0.10000   |   -0.48695   0.81159  -0.18620    |
 |   370   -0.40000  -0.40000  -0.10000   |   -0.64927  -0.64927  -0.18620    |
 |   371   -0.40000   0.40000   0.10000   |   -0.64927   0.64927   0.18620    |
 |   372    0.40000  -0.40000  -0.10000   |    0.64927  -0.64927  -0.18620    |
 |   373   -0.40000  -0.40000   0.10000   |   -0.64927  -0.64927   0.18620    |
 |   374    0.40000   0.40000  -0.10000   |    0.64927   0.64927  -0.18620    |
 |   375    0.40000  -0.40000   0.10000   |    0.64927  -0.64927   0.18620    |
 |   376   -0.40000   0.40000  -0.10000   |   -0.64927   0.64927  -0.18620    |
 |   377   -0.50000  -0.40000  -0.10000   |   -0.81159  -0.64927  -0.18620    |
 |   378   -0.40000   0.50000   0.10000   |   -0.64927   0.81159   0.18620    |
 |   379    0.40000  -0.50000  -0.10000   |    0.64927  -0.81159  -0.18620    |
 |   380   -0.50000  -0.40000   0.10000   |   -0.81159  -0.64927   0.18620    |
 |   381    0.50000   0.40000  -0.10000   |    0.81159   0.64927  -0.18620    |
 |   382    0.40000  -0.50000   0.10000   |    0.64927  -0.81159   0.18620    |
 |   383   -0.40000   0.50000  -0.10000   |   -0.64927   0.81159  -0.18620    |
 |   384   -0.50000  -0.50000  -0.10000   |   -0.81159  -0.81159  -0.18620    |
 |   385    0.00000   0.00000  -0.20000   |    0.00000   0.00000  -0.37239    |
 |   386   -0.10000   0.00000  -0.20000   |   -0.16232   0.00000  -0.37239    |
 |   387    0.00000   0.10000   0.20000   |    0.00000   0.16232   0.37239    |
 |   388    0.00000  -0.10000  -0.20000   |    0.00000  -0.16232  -0.37239    |
 |   389   -0.10000   0.00000   0.20000   |   -0.16232   0.00000   0.37239    |
 |   390    0.10000   0.00000  -0.20000   |    0.16232   0.00000  -0.37239    |
 |   391    0.00000  -0.10000   0.20000   |    0.00000  -0.16232   0.37239    |
 |   392    0.00000   0.10000  -0.20000   |    0.00000   0.16232  -0.37239    |
 |   393   -0.20000   0.00000  -0.20000   |   -0.32463   0.00000  -0.37239    |
 |   394    0.00000   0.20000   0.20000   |    0.00000   0.32463   0.37239    |
 |   395    0.00000  -0.20000  -0.20000   |    0.00000  -0.32463  -0.37239    |
 |   396   -0.20000   0.00000   0.20000   |   -0.32463   0.00000   0.37239    |
 |   397    0.20000   0.00000  -0.20000   |    0.32463   0.00000  -0.37239    |
 |   398    0.00000  -0.20000   0.20000   |    0.00000  -0.32463   0.37239    |
 |   399    0.00000   0.20000  -0.20000   |    0.00000   0.32463  -0.37239    |
 |   400   -0.30000   0.00000  -0.20000   |   -0.48695   0.00000  -0.37239    |
 |   401    0.00000   0.30000   0.20000   |    0.00000   0.48695   0.37239    |
 |   402    0.00000  -0.30000  -0.20000   |    0.00000  -0.48695  -0.37239    |
 |   403   -0.30000   0.00000   0.20000   |   -0.48695   0.00000   0.37239    |
 |   404    0.30000   0.00000  -0.20000   |    0.48695   0.00000  -0.37239    |
 |   405    0.00000  -0.30000   0.20000   |    0.00000  -0.48695   0.37239    |
 |   406    0.00000   0.30000  -0.20000   |    0.00000   0.48695  -0.37239    |
 |   407   -0.40000   0.00000  -0.20000   |   -0.64927   0.00000  -0.37239    |
 |   408    0.00000   0.40000   0.20000   |    0.00000   0.64927   0.37239    |
 |   409    0.00000  -0.40000  -0.20000   |    0.00000  -0.64927  -0.37239    |
 |   410   -0.40000   0.00000   0.20000   |   -0.64927   0.00000   0.37239    |
 |   411    0.40000   0.00000  -0.20000   |    0.64927   0.00000  -0.37239    |
 |   412    0.00000  -0.40000   0.20000   |    0.00000  -0.64927   0.37239    |
 |   413    0.00000   0.40000  -0.20000   |    0.00000   0.64927  -0.37239    |
 |   414   -0.50000   0.00000  -0.20000   |   -0.81159   0.00000  -0.37239    |
 |   415    0.00000   0.50000   0.20000   |    0.00000   0.81159   0.37239    |
 |   416    0.00000  -0.50000  -0.20000   |    0.00000  -0.81159  -0.37239    |
 |   417   -0.10000  -0.10000  -0.20000   |   -0.16232  -0.16232  -0.37239    |
 |   418   -0.10000   0.10000   0.20000   |   -0.16232   0.16232   0.37239    |
 |   419    0.10000  -0.10000  -0.20000   |    0.16232  -0.16232  -0.37239    |
 |   420   -0.10000  -0.10000   0.20000   |   -0.16232  -0.16232   0.37239    |
 |   421    0.10000   0.10000  -0.20000   |    0.16232   0.16232  -0.37239    |
 |   422    0.10000  -0.10000   0.20000   |    0.16232  -0.16232   0.37239    |
 |   423   -0.10000   0.10000  -0.20000   |   -0.16232   0.16232  -0.37239    |
 |   424   -0.20000  -0.10000  -0.20000   |   -0.32463  -0.16232  -0.37239    |
 |   425   -0.10000   0.20000   0.20000   |   -0.16232   0.32463   0.37239    |
 |   426    0.10000  -0.20000  -0.20000   |    0.16232  -0.32463  -0.37239    |
 |   427   -0.20000  -0.10000   0.20000   |   -0.32463  -0.16232   0.37239    |
 |   428    0.20000   0.10000  -0.20000   |    0.32463   0.16232  -0.37239    |
 |   429    0.10000  -0.20000   0.20000   |    0.16232  -0.32463   0.37239    |
 |   430   -0.10000   0.20000  -0.20000   |   -0.16232   0.32463  -0.37239    |
 |   431   -0.20000   0.10000  -0.20000   |   -0.32463   0.16232  -0.37239    |
 |   432    0.20000  -0.10000   0.20000   |    0.32463  -0.16232   0.37239    |
 |   433    0.10000   0.20000  -0.20000   |    0.16232   0.32463  -0.37239    |
 |   434   -0.10000  -0.20000   0.20000   |   -0.16232  -0.32463   0.37239    |
 |   435    0.20000  -0.10000  -0.20000   |    0.32463  -0.16232  -0.37239    |
 |   436   -0.20000   0.10000   0.20000   |   -0.32463   0.16232   0.37239    |
 |   437   -0.10000  -0.20000  -0.20000   |   -0.16232  -0.32463  -0.37239    |
 |   438    0.10000   0.20000   0.20000   |    0.16232   0.32463   0.37239    |
 |   439   -0.30000  -0.10000  -0.20000   |   -0.48695  -0.16232  -0.37239    |
 |   440   -0.10000   0.30000   0.20000   |   -0.16232   0.48695   0.37239    |
 |   441    0.10000  -0.30000  -0.20000   |    0.16232  -0.48695  -0.37239    |
 |   442   -0.30000  -0.10000   0.20000   |   -0.48695  -0.16232   0.37239    |
 |   443    0.30000   0.10000  -0.20000   |    0.48695   0.16232  -0.37239    |
 |   444    0.10000  -0.30000   0.20000   |    0.16232  -0.48695   0.37239    |
 |   445   -0.10000   0.30000  -0.20000   |   -0.16232   0.48695  -0.37239    |
 |   446   -0.30000   0.10000  -0.20000   |   -0.48695   0.16232  -0.37239    |
 |   447    0.30000  -0.10000   0.20000   |    0.48695  -0.16232   0.37239    |
 |   448    0.10000   0.30000  -0.20000   |    0.16232   0.48695  -0.37239    |
 |   449   -0.10000  -0.30000   0.20000   |   -0.16232  -0.48695   0.37239    |
 |   450    0.30000  -0.10000  -0.20000   |    0.48695  -0.16232  -0.37239    |
 |   451   -0.30000   0.10000   0.20000   |   -0.48695   0.16232   0.37239    |
 |   452   -0.10000  -0.30000  -0.20000   |   -0.16232  -0.48695  -0.37239    |
 |   453    0.10000   0.30000   0.20000   |    0.16232   0.48695   0.37239    |
 |   454   -0.40000  -0.10000  -0.20000   |   -0.64927  -0.16232  -0.37239    |
 |   455   -0.10000   0.40000   0.20000   |   -0.16232   0.64927   0.37239    |
 |   456    0.10000  -0.40000  -0.20000   |    0.16232  -0.64927  -0.37239    |
 |   457   -0.40000  -0.10000   0.20000   |   -0.64927  -0.16232   0.37239    |
 |   458    0.40000   0.10000  -0.20000   |    0.64927   0.16232  -0.37239    |
 |   459    0.10000  -0.40000   0.20000   |    0.16232  -0.64927   0.37239    |
 |   460   -0.10000   0.40000  -0.20000   |   -0.16232   0.64927  -0.37239    |
 |   461   -0.40000   0.10000  -0.20000   |   -0.64927   0.16232  -0.37239    |
 |   462    0.40000  -0.10000   0.20000   |    0.64927  -0.16232   0.37239    |
 |   463    0.10000   0.40000  -0.20000   |    0.16232   0.64927  -0.37239    |
 |   464   -0.10000  -0.40000   0.20000   |   -0.16232  -0.64927   0.37239    |
 |   465    0.40000  -0.10000  -0.20000   |    0.64927  -0.16232  -0.37239    |
 |   466   -0.40000   0.10000   0.20000   |   -0.64927   0.16232   0.37239    |
 |   467   -0.10000  -0.40000  -0.20000   |   -0.16232  -0.64927  -0.37239    |
 |   468    0.10000   0.40000   0.20000   |    0.16232   0.64927   0.37239    |
 |   469   -0.50000  -0.10000  -0.20000   |   -0.81159  -0.16232  -0.37239    |
 |   470   -0.10000   0.50000   0.20000   |   -0.16232   0.81159   0.37239    |
 |   471    0.10000  -0.50000  -0.20000   |    0.16232  -0.81159  -0.37239    |
 |   472   -0.50000  -0.10000   0.20000   |   -0.81159  -0.16232   0.37239    |
 |   473    0.50000   0.10000  -0.20000   |    0.81159   0.16232  -0.37239    |
 |   474    0.10000  -0.50000   0.20000   |    0.16232  -0.81159   0.37239    |
 |   475   -0.10000   0.50000  -0.20000   |   -0.16232   0.81159  -0.37239    |
 |   476   -0.20000  -0.20000  -0.20000   |   -0.32463  -0.32463  -0.37239    |
 |   477   -0.20000   0.20000   0.20000   |   -0.32463   0.32463   0.37239    |
 |   478    0.20000  -0.20000  -0.20000   |    0.32463  -0.32463  -0.37239    |
 |   479   -0.20000  -0.20000   0.20000   |   -0.32463  -0.32463   0.37239    |
 |   480    0.20000   0.20000  -0.20000   |    0.32463   0.32463  -0.37239    |
 |   481    0.20000  -0.20000   0.20000   |    0.32463  -0.32463   0.37239    |
 |   482   -0.20000   0.20000  -0.20000   |   -0.32463   0.32463  -0.37239    |
 |   483   -0.30000  -0.20000  -0.20000   |   -0.48695  -0.32463  -0.37239    |
 |   484   -0.20000   0.30000   0.20000   |   -0.32463   0.48695   0.37239    |
 |   485    0.20000  -0.30000  -0.20000   |    0.32463  -0.48695  -0.37239    |
 |   486   -0.30000  -0.20000   0.20000   |   -0.48695  -0.32463   0.37239    |
 |   487    0.30000   0.20000  -0.20000   |    0.48695   0.32463  -0.37239    |
 |   488    0.20000  -0.30000   0.20000   |    0.32463  -0.48695   0.37239    |
 |   489   -0.20000   0.30000  -0.20000   |   -0.32463   0.48695  -0.37239    |
 |   490   -0.30000   0.20000  -0.20000   |   -0.48695   0.32463  -0.37239    |
 |   491    0.30000  -0.20000   0.20000   |    0.48695  -0.32463   0.37239    |
 |   492    0.20000   0.30000  -0.20000   |    0.32463   0.48695  -0.37239    |
 |   493   -0.20000  -0.30000   0.20000   |   -0.32463  -0.48695   0.37239    |
 |   494    0.30000  -0.20000  -0.20000   |    0.48695  -0.32463  -0.37239    |
 |   495   -0.30000   0.20000   0.20000   |   -0.48695   0.32463   0.37239    |
 |   496   -0.20000  -0.30000  -0.20000   |   -0.32463  -0.48695  -0.37239    |
 |   497    0.20000   0.30000   0.20000   |    0.32463   0.48695   0.37239    |
 |   498   -0.40000  -0.20000  -0.20000   |   -0.64927  -0.32463  -0.37239    |
 |   499   -0.20000   0.40000   0.20000   |   -0.32463   0.64927   0.37239    |
 |   500    0.20000  -0.40000  -0.20000   |    0.32463  -0.64927  -0.37239    |
 |   501   -0.40000  -0.20000   0.20000   |   -0.64927  -0.32463   0.37239    |
 |   502    0.40000   0.20000  -0.20000   |    0.64927   0.32463  -0.37239    |
 |   503    0.20000  -0.40000   0.20000   |    0.32463  -0.64927   0.37239    |
 |   504   -0.20000   0.40000  -0.20000   |   -0.32463   0.64927  -0.37239    |
 |   505   -0.40000   0.20000  -0.20000   |   -0.64927   0.32463  -0.37239    |
 |   506    0.40000  -0.20000   0.20000   |    0.64927  -0.32463   0.37239    |
 |   507    0.20000   0.40000  -0.20000   |    0.32463   0.64927  -0.37239    |
 |   508   -0.20000  -0.40000   0.20000   |   -0.32463  -0.64927   0.37239    |
 |   509    0.40000  -0.20000  -0.20000   |    0.64927  -0.32463  -0.37239    |
 |   510   -0.40000   0.20000   0.20000   |   -0.64927   0.32463   0.37239    |
 |   511   -0.20000  -0.40000  -0.20000   |   -0.32463  -0.64927  -0.37239    |
 |   512    0.20000   0.40000   0.20000   |    0.32463   0.64927   0.37239    |
 |   513   -0.50000  -0.20000  -0.20000   |   -0.81159  -0.32463  -0.37239    |
 |   514   -0.20000   0.50000   0.20000   |   -0.32463   0.81159   0.37239    |
 |   515    0.20000  -0.50000  -0.20000   |    0.32463  -0.81159  -0.37239    |
 |   516   -0.50000  -0.20000   0.20000   |   -0.81159  -0.32463   0.37239    |
 |   517    0.50000   0.20000  -0.20000   |    0.81159   0.32463  -0.37239    |
 |   518    0.20000  -0.50000   0.20000   |    0.32463  -0.81159   0.37239    |
 |   519   -0.20000   0.50000  -0.20000   |   -0.32463   0.81159  -0.37239    |
 |   520   -0.30000  -0.30000  -0.20000   |   -0.48695  -0.48695  -0.37239    |
 |   521   -0.30000   0.30000   0.20000   |   -0.48695   0.48695   0.37239    |
 |   522    0.30000  -0.30000  -0.20000   |    0.48695  -0.48695  -0.37239    |
 |   523   -0.30000  -0.30000   0.20000   |   -0.48695  -0.48695   0.37239    |
 |   524    0.30000   0.30000  -0.20000   |    0.48695   0.48695  -0.37239    |
 |   525    0.30000  -0.30000   0.20000   |    0.48695  -0.48695   0.37239    |
 |   526   -0.30000   0.30000  -0.20000   |   -0.48695   0.48695  -0.37239    |
 |   527   -0.40000  -0.30000  -0.20000   |   -0.64927  -0.48695  -0.37239    |
 |   528   -0.30000   0.40000   0.20000   |   -0.48695   0.64927   0.37239    |
 |   529    0.30000  -0.40000  -0.20000   |    0.48695  -0.64927  -0.37239    |
 |   530   -0.40000  -0.30000   0.20000   |   -0.64927  -0.48695   0.37239    |
 |   531    0.40000   0.30000  -0.20000   |    0.64927   0.48695  -0.37239    |
 |   532    0.30000  -0.40000   0.20000   |    0.48695  -0.64927   0.37239    |
 |   533   -0.30000   0.40000  -0.20000   |   -0.48695   0.64927  -0.37239    |
 |   534   -0.40000   0.30000  -0.20000   |   -0.64927   0.48695  -0.37239    |
 |   535    0.40000  -0.30000   0.20000   |    0.64927  -0.48695   0.37239    |
 |   536    0.30000   0.40000  -0.20000   |    0.48695   0.64927  -0.37239    |
 |   537   -0.30000  -0.40000   0.20000   |   -0.48695  -0.64927   0.37239    |
 |   538    0.40000  -0.30000  -0.20000   |    0.64927  -0.48695  -0.37239    |
 |   539   -0.40000   0.30000   0.20000   |   -0.64927   0.48695   0.37239    |
 |   540   -0.30000  -0.40000  -0.20000   |   -0.48695  -0.64927  -0.37239    |
 |   541    0.30000   0.40000   0.20000   |    0.48695   0.64927   0.37239    |
 |   542   -0.50000  -0.30000  -0.20000   |   -0.81159  -0.48695  -0.37239    |
 |   543   -0.30000   0.50000   0.20000   |   -0.48695   0.81159   0.37239    |
 |   544    0.30000  -0.50000  -0.20000   |    0.48695  -0.81159  -0.37239    |
 |   545   -0.50000  -0.30000   0.20000   |   -0.81159  -0.48695   0.37239    |
 |   546    0.50000   0.30000  -0.20000   |    0.81159   0.48695  -0.37239    |
 |   547    0.30000  -0.50000   0.20000   |    0.48695  -0.81159   0.37239    |
 |   548   -0.30000   0.50000  -0.20000   |   -0.48695   0.81159  -0.37239    |
 |   549   -0.40000  -0.40000  -0.20000   |   -0.64927  -0.64927  -0.37239    |
 |   550   -0.40000   0.40000   0.20000   |   -0.64927   0.64927   0.37239    |
 |   551    0.40000  -0.40000  -0.20000   |    0.64927  -0.64927  -0.37239    |
 |   552   -0.40000  -0.40000   0.20000   |   -0.64927  -0.64927   0.37239    |
 |   553    0.40000   0.40000  -0.20000   |    0.64927   0.64927  -0.37239    |
 |   554    0.40000  -0.40000   0.20000   |    0.64927  -0.64927   0.37239    |
 |   555   -0.40000   0.40000  -0.20000   |   -0.64927   0.64927  -0.37239    |
 |   556   -0.50000  -0.40000  -0.20000   |   -0.81159  -0.64927  -0.37239    |
 |   557   -0.40000   0.50000   0.20000   |   -0.64927   0.81159   0.37239    |
 |   558    0.40000  -0.50000  -0.20000   |    0.64927  -0.81159  -0.37239    |
 |   559   -0.50000  -0.40000   0.20000   |   -0.81159  -0.64927   0.37239    |
 |   560    0.50000   0.40000  -0.20000   |    0.81159   0.64927  -0.37239    |
 |   561    0.40000  -0.50000   0.20000   |    0.64927  -0.81159   0.37239    |
 |   562   -0.40000   0.50000  -0.20000   |   -0.64927   0.81159  -0.37239    |
 |   563   -0.50000  -0.50000  -0.20000   |   -0.81159  -0.81159  -0.37239    |
 |   564    0.00000   0.00000  -0.30000   |    0.00000   0.00000  -0.55859    |
 |   565   -0.10000   0.00000  -0.30000   |   -0.16232   0.00000  -0.55859    |
 |   566    0.00000   0.10000   0.30000   |    0.00000   0.16232   0.55859    |
 |   567    0.00000  -0.10000  -0.30000   |    0.00000  -0.16232  -0.55859    |
 |   568   -0.10000   0.00000   0.30000   |   -0.16232   0.00000   0.55859    |
 |   569    0.10000   0.00000  -0.30000   |    0.16232   0.00000  -0.55859    |
 |   570    0.00000  -0.10000   0.30000   |    0.00000  -0.16232   0.55859    |
 |   571    0.00000   0.10000  -0.30000   |    0.00000   0.16232  -0.55859    |
 |   572   -0.20000   0.00000  -0.30000   |   -0.32463   0.00000  -0.55859    |
 |   573    0.00000   0.20000   0.30000   |    0.00000   0.32463   0.55859    |
 |   574    0.00000  -0.20000  -0.30000   |    0.00000  -0.32463  -0.55859    |
 |   575   -0.20000   0.00000   0.30000   |   -0.32463   0.00000   0.55859    |
 |   576    0.20000   0.00000  -0.30000   |    0.32463   0.00000  -0.55859    |
 |   577    0.00000  -0.20000   0.30000   |    0.00000  -0.32463   0.55859    |
 |   578    0.00000   0.20000  -0.30000   |    0.00000   0.32463  -0.55859    |
 |   579   -0.30000   0.00000  -0.30000   |   -0.48695   0.00000  -0.55859    |
 |   580    0.00000   0.30000   0.30000   |    0.00000   0.48695   0.55859    |
 |   581    0.00000  -0.30000  -0.30000   |    0.00000  -0.48695  -0.55859    |
 |   582   -0.30000   0.00000   0.30000   |   -0.48695   0.00000   0.55859    |
 |   583    0.30000   0.00000  -0.30000   |    0.48695   0.00000  -0.55859    |
 |   584    0.00000  -0.30000   0.30000   |    0.00000  -0.48695   0.55859    |
 |   585    0.00000   0.30000  -0.30000   |    0.00000   0.48695  -0.55859    |
 |   586   -0.40000   0.00000  -0.30000   |   -0.64927   0.00000  -0.55859    |
 |   587    0.00000   0.40000   0.30000   |    0.00000   0.64927   0.55859    |
 |   588    0.00000  -0.40000  -0.30000   |    0.00000  -0.64927  -0.55859    |
 |   589   -0.40000   0.00000   0.30000   |   -0.64927   0.00000   0.55859    |
 |   590    0.40000   0.00000  -0.30000   |    0.64927   0.00000  -0.55859    |
 |   591    0.00000  -0.40000   0.30000   |    0.00000  -0.64927   0.55859    |
 |   592    0.00000   0.40000  -0.30000   |    0.00000   0.64927  -0.55859    |
 |   593   -0.50000   0.00000  -0.30000   |   -0.81159   0.00000  -0.55859    |
 |   594    0.00000   0.50000   0.30000   |    0.00000   0.81159   0.55859    |
 |   595    0.00000  -0.50000  -0.30000   |    0.00000  -0.81159  -0.55859    |
 |   596   -0.10000  -0.10000  -0.30000   |   -0.16232  -0.16232  -0.55859    |
 |   597   -0.10000   0.10000   0.30000   |   -0.16232   0.16232   0.55859    |
 |   598    0.10000  -0.10000  -0.30000   |    0.16232  -0.16232  -0.55859    |
 |   599   -0.10000  -0.10000   0.30000   |   -0.16232  -0.16232   0.55859    |
 |   600    0.10000   0.10000  -0.30000   |    0.16232   0.16232  -0.55859    |
 |   601    0.10000  -0.10000   0.30000   |    0.16232  -0.16232   0.55859    |
 |   602   -0.10000   0.10000  -0.30000   |   -0.16232   0.16232  -0.55859    |
 |   603   -0.20000  -0.10000  -0.30000   |   -0.32463  -0.16232  -0.55859    |
 |   604   -0.10000   0.20000   0.30000   |   -0.16232   0.32463   0.55859    |
 |   605    0.10000  -0.20000  -0.30000   |    0.16232  -0.32463  -0.55859    |
 |   606   -0.20000  -0.10000   0.30000   |   -0.32463  -0.16232   0.55859    |
 |   607    0.20000   0.10000  -0.30000   |    0.32463   0.16232  -0.55859    |
 |   608    0.10000  -0.20000   0.30000   |    0.16232  -0.32463   0.55859    |
 |   609   -0.10000   0.20000  -0.30000   |   -0.16232   0.32463  -0.55859    |
 |   610   -0.20000   0.10000  -0.30000   |   -0.32463   0.16232  -0.55859    |
 |   611    0.20000  -0.10000   0.30000   |    0.32463  -0.16232   0.55859    |
 |   612    0.10000   0.20000  -0.30000   |    0.16232   0.32463  -0.55859    |
 |   613   -0.10000  -0.20000   0.30000   |   -0.16232  -0.32463   0.55859    |
 |   614    0.20000  -0.10000  -0.30000   |    0.32463  -0.16232  -0.55859    |
 |   615   -0.20000   0.10000   0.30000   |   -0.32463   0.16232   0.55859    |
 |   616   -0.10000  -0.20000  -0.30000   |   -0.16232  -0.32463  -0.55859    |
 |   617    0.10000   0.20000   0.30000   |    0.16232   0.32463   0.55859    |
 |   618   -0.30000  -0.10000  -0.30000   |   -0.48695  -0.16232  -0.55859    |
 |   619   -0.10000   0.30000   0.30000   |   -0.16232   0.48695   0.55859    |
 |   620    0.10000  -0.30000  -0.30000   |    0.16232  -0.48695  -0.55859    |
 |   621   -0.30000  -0.10000   0.30000   |   -0.48695  -0.16232   0.55859    |
 |   622    0.30000   0.10000  -0.30000   |    0.48695   0.16232  -0.55859    |
 |   623    0.10000  -0.30000   0.30000   |    0.16232  -0.48695   0.55859    |
 |   624   -0.10000   0.30000  -0.30000   |   -0.16232   0.48695  -0.55859    |
 |   625   -0.30000   0.10000  -0.30000   |   -0.48695   0.16232  -0.55859    |
 |   626    0.30000  -0.10000   0.30000   |    0.48695  -0.16232   0.55859    |
 |   627    0.10000   0.30000  -0.30000   |    0.16232   0.48695  -0.55859    |
 |   628   -0.10000  -0.30000   0.30000   |   -0.16232  -0.48695   0.55859    |
 |   629    0.30000  -0.10000  -0.30000   |    0.48695  -0.16232  -0.55859    |
 |   630   -0.30000   0.10000   0.30000   |   -0.48695   0.16232   0.55859    |
 |   631   -0.10000  -0.30000  -0.30000   |   -0.16232  -0.48695  -0.55859    |
 |   632    0.10000   0.30000   0.30000   |    0.16232   0.48695   0.55859    |
 |   633   -0.40000  -0.10000  -0.30000   |   -0.64927  -0.16232  -0.55859    |
 |   634   -0.10000   0.40000   0.30000   |   -0.16232   0.64927   0.55859    |
 |   635    0.10000  -0.40000  -0.30000   |    0.16232  -0.64927  -0.55859    |
 |   636   -0.40000  -0.10000   0.30000   |   -0.64927  -0.16232   0.55859    |
 |   637    0.40000   0.10000  -0.30000   |    0.64927   0.16232  -0.55859    |
 |   638    0.10000  -0.40000   0.30000   |    0.16232  -0.64927   0.55859    |
 |   639   -0.10000   0.40000  -0.30000   |   -0.16232   0.64927  -0.55859    |
 |   640   -0.40000   0.10000  -0.30000   |   -0.64927   0.16232  -0.55859    |
 |   641    0.40000  -0.10000   0.30000   |    0.64927  -0.16232   0.55859    |
 |   642    0.10000   0.40000  -0.30000   |    0.16232   0.64927  -0.55859    |
 |   643   -0.10000  -0.40000   0.30000   |   -0.16232  -0.64927   0.55859    |
 |   644    0.40000  -0.10000  -0.30000   |    0.64927  -0.16232  -0.55859    |
 |   645   -0.40000   0.10000   0.30000   |   -0.64927   0.16232   0.55859    |
 |   646   -0.10000  -0.40000  -0.30000   |   -0.16232  -0.64927  -0.55859    |
 |   647    0.10000   0.40000   0.30000   |    0.16232   0.64927   0.55859    |
 |   648   -0.50000  -0.10000  -0.30000   |   -0.81159  -0.16232  -0.55859    |
 |   649   -0.10000   0.50000   0.30000   |   -0.16232   0.81159   0.55859    |
 |   650    0.10000  -0.50000  -0.30000   |    0.16232  -0.81159  -0.55859    |
 |   651   -0.50000  -0.10000   0.30000   |   -0.81159  -0.16232   0.55859    |
 |   652    0.50000   0.10000  -0.30000   |    0.81159   0.16232  -0.55859    |
 |   653    0.10000  -0.50000   0.30000   |    0.16232  -0.81159   0.55859    |
 |   654   -0.10000   0.50000  -0.30000   |   -0.16232   0.81159  -0.55859    |
 |   655   -0.20000  -0.20000  -0.30000   |   -0.32463  -0.32463  -0.55859    |
 |   656   -0.20000   0.20000   0.30000   |   -0.32463   0.32463   0.55859    |
 |   657    0.20000  -0.20000  -0.30000   |    0.32463  -0.32463  -0.55859    |
 |   658   -0.20000  -0.20000   0.30000   |   -0.32463  -0.32463   0.55859    |
 |   659    0.20000   0.20000  -0.30000   |    0.32463   0.32463  -0.55859    |
 |   660    0.20000  -0.20000   0.30000   |    0.32463  -0.32463   0.55859    |
 |   661   -0.20000   0.20000  -0.30000   |   -0.32463   0.32463  -0.55859    |
 |   662   -0.30000  -0.20000  -0.30000   |   -0.48695  -0.32463  -0.55859    |
 |   663   -0.20000   0.30000   0.30000   |   -0.32463   0.48695   0.55859    |
 |   664    0.20000  -0.30000  -0.30000   |    0.32463  -0.48695  -0.55859    |
 |   665   -0.30000  -0.20000   0.30000   |   -0.48695  -0.32463   0.55859    |
 |   666    0.30000   0.20000  -0.30000   |    0.48695   0.32463  -0.55859    |
 |   667    0.20000  -0.30000   0.30000   |    0.32463  -0.48695   0.55859    |
 |   668   -0.20000   0.30000  -0.30000   |   -0.32463   0.48695  -0.55859    |
 |   669   -0.30000   0.20000  -0.30000   |   -0.48695   0.32463  -0.55859    |
 |   670    0.30000  -0.20000   0.30000   |    0.48695  -0.32463   0.55859    |
 |   671    0.20000   0.30000  -0.30000   |    0.32463   0.48695  -0.55859    |
 |   672   -0.20000  -0.30000   0.30000   |   -0.32463  -0.48695   0.55859    |
 |   673    0.30000  -0.20000  -0.30000   |    0.48695  -0.32463  -0.55859    |
 |   674   -0.30000   0.20000   0.30000   |   -0.48695   0.32463   0.55859    |
 |   675   -0.20000  -0.30000  -0.30000   |   -0.32463  -0.48695  -0.55859    |
 |   676    0.20000   0.30000   0.30000   |    0.32463   0.48695   0.55859    |
 |   677   -0.40000  -0.20000  -0.30000   |   -0.64927  -0.32463  -0.55859    |
 |   678   -0.20000   0.40000   0.30000   |   -0.32463   0.64927   0.55859    |
 |   679    0.20000  -0.40000  -0.30000   |    0.32463  -0.64927  -0.55859    |
 |   680   -0.40000  -0.20000   0.30000   |   -0.64927  -0.32463   0.55859    |
 |   681    0.40000   0.20000  -0.30000   |    0.64927   0.32463  -0.55859    |
 |   682    0.20000  -0.40000   0.30000   |    0.32463  -0.64927   0.55859    |
 |   683   -0.20000   0.40000  -0.30000   |   -0.32463   0.64927  -0.55859    |
 |   684   -0.40000   0.20000  -0.30000   |   -0.64927   0.32463  -0.55859    |
 |   685    0.40000  -0.20000   0.30000   |    0.64927  -0.32463   0.55859    |
 |   686    0.20000   0.40000  -0.30000   |    0.32463   0.64927  -0.55859    |
 |   687   -0.20000  -0.40000   0.30000   |   -0.32463  -0.64927   0.55859    |
 |   688    0.40000  -0.20000  -0.30000   |    0.64927  -0.32463  -0.55859    |
 |   689   -0.40000   0.20000   0.30000   |   -0.64927   0.32463   0.55859    |
 |   690   -0.20000  -0.40000  -0.30000   |   -0.32463  -0.64927  -0.55859    |
 |   691    0.20000   0.40000   0.30000   |    0.32463   0.64927   0.55859    |
 |   692   -0.50000  -0.20000  -0.30000   |   -0.81159  -0.32463  -0.55859    |
 |   693   -0.20000   0.50000   0.30000   |   -0.32463   0.81159   0.55859    |
 |   694    0.20000  -0.50000  -0.30000   |    0.32463  -0.81159  -0.55859    |
 |   695   -0.50000  -0.20000   0.30000   |   -0.81159  -0.32463   0.55859    |
 |   696    0.50000   0.20000  -0.30000   |    0.81159   0.32463  -0.55859    |
 |   697    0.20000  -0.50000   0.30000   |    0.32463  -0.81159   0.55859    |
 |   698   -0.20000   0.50000  -0.30000   |   -0.32463   0.81159  -0.55859    |
 |   699   -0.30000  -0.30000  -0.30000   |   -0.48695  -0.48695  -0.55859    |
 |   700   -0.30000   0.30000   0.30000   |   -0.48695   0.48695   0.55859    |
 |   701    0.30000  -0.30000  -0.30000   |    0.48695  -0.48695  -0.55859    |
 |   702   -0.30000  -0.30000   0.30000   |   -0.48695  -0.48695   0.55859    |
 |   703    0.30000   0.30000  -0.30000   |    0.48695   0.48695  -0.55859    |
 |   704    0.30000  -0.30000   0.30000   |    0.48695  -0.48695   0.55859    |
 |   705   -0.30000   0.30000  -0.30000   |   -0.48695   0.48695  -0.55859    |
 |   706   -0.40000  -0.30000  -0.30000   |   -0.64927  -0.48695  -0.55859    |
 |   707   -0.30000   0.40000   0.30000   |   -0.48695   0.64927   0.55859    |
 |   708    0.30000  -0.40000  -0.30000   |    0.48695  -0.64927  -0.55859    |
 |   709   -0.40000  -0.30000   0.30000   |   -0.64927  -0.48695   0.55859    |
 |   710    0.40000   0.30000  -0.30000   |    0.64927   0.48695  -0.55859    |
 |   711    0.30000  -0.40000   0.30000   |    0.48695  -0.64927   0.55859    |
 |   712   -0.30000   0.40000  -0.30000   |   -0.48695   0.64927  -0.55859    |
 |   713   -0.40000   0.30000  -0.30000   |   -0.64927   0.48695  -0.55859    |
 |   714    0.40000  -0.30000   0.30000   |    0.64927  -0.48695   0.55859    |
 |   715    0.30000   0.40000  -0.30000   |    0.48695   0.64927  -0.55859    |
 |   716   -0.30000  -0.40000   0.30000   |   -0.48695  -0.64927   0.55859    |
 |   717    0.40000  -0.30000  -0.30000   |    0.64927  -0.48695  -0.55859    |
 |   718   -0.40000   0.30000   0.30000   |   -0.64927   0.48695   0.55859    |
 |   719   -0.30000  -0.40000  -0.30000   |   -0.48695  -0.64927  -0.55859    |
 |   720    0.30000   0.40000   0.30000   |    0.48695   0.64927   0.55859    |
 |   721   -0.50000  -0.30000  -0.30000   |   -0.81159  -0.48695  -0.55859    |
 |   722   -0.30000   0.50000   0.30000   |   -0.48695   0.81159   0.55859    |
 |   723    0.30000  -0.50000  -0.30000   |    0.48695  -0.81159  -0.55859    |
 |   724   -0.50000  -0.30000   0.30000   |   -0.81159  -0.48695   0.55859    |
 |   725    0.50000   0.30000  -0.30000   |    0.81159   0.48695  -0.55859    |
 |   726    0.30000  -0.50000   0.30000   |    0.48695  -0.81159   0.55859    |
 |   727   -0.30000   0.50000  -0.30000   |   -0.48695   0.81159  -0.55859    |
 |   728   -0.40000  -0.40000  -0.30000   |   -0.64927  -0.64927  -0.55859    |
 |   729   -0.40000   0.40000   0.30000   |   -0.64927   0.64927   0.55859    |
 |   730    0.40000  -0.40000  -0.30000   |    0.64927  -0.64927  -0.55859    |
 |   731   -0.40000  -0.40000   0.30000   |   -0.64927  -0.64927   0.55859    |
 |   732    0.40000   0.40000  -0.30000   |    0.64927   0.64927  -0.55859    |
 |   733    0.40000  -0.40000   0.30000   |    0.64927  -0.64927   0.55859    |
 |   734   -0.40000   0.40000  -0.30000   |   -0.64927   0.64927  -0.55859    |
 |   735   -0.50000  -0.40000  -0.30000   |   -0.81159  -0.64927  -0.55859    |
 |   736   -0.40000   0.50000   0.30000   |   -0.64927   0.81159   0.55859    |
 |   737    0.40000  -0.50000  -0.30000   |    0.64927  -0.81159  -0.55859    |
 |   738   -0.50000  -0.40000   0.30000   |   -0.81159  -0.64927   0.55859    |
 |   739    0.50000   0.40000  -0.30000   |    0.81159   0.64927  -0.55859    |
 |   740    0.40000  -0.50000   0.30000   |    0.64927  -0.81159   0.55859    |
 |   741   -0.40000   0.50000  -0.30000   |   -0.64927   0.81159  -0.55859    |
 |   742   -0.50000  -0.50000  -0.30000   |   -0.81159  -0.81159  -0.55859    |
 |   743    0.00000   0.00000  -0.40000   |    0.00000   0.00000  -0.74478    |
 |   744   -0.10000   0.00000  -0.40000   |   -0.16232   0.00000  -0.74478    |
 |   745    0.00000   0.10000   0.40000   |    0.00000   0.16232   0.74478    |
 |   746    0.00000  -0.10000  -0.40000   |    0.00000  -0.16232  -0.74478    |
 |   747   -0.10000   0.00000   0.40000   |   -0.16232   0.00000   0.74478    |
 |   748    0.10000   0.00000  -0.40000   |    0.16232   0.00000  -0.74478    |
 |   749    0.00000  -0.10000   0.40000   |    0.00000  -0.16232   0.74478    |
 |   750    0.00000   0.10000  -0.40000   |    0.00000   0.16232  -0.74478    |
 |   751   -0.20000   0.00000  -0.40000   |   -0.32463   0.00000  -0.74478    |
 |   752    0.00000   0.20000   0.40000   |    0.00000   0.32463   0.74478    |
 |   753    0.00000  -0.20000  -0.40000   |    0.00000  -0.32463  -0.74478    |
 |   754   -0.20000   0.00000   0.40000   |   -0.32463   0.00000   0.74478    |
 |   755    0.20000   0.00000  -0.40000   |    0.32463   0.00000  -0.74478    |
 |   756    0.00000  -0.20000   0.40000   |    0.00000  -0.32463   0.74478    |
 |   757    0.00000   0.20000  -0.40000   |    0.00000   0.32463  -0.74478    |
 |   758   -0.30000   0.00000  -0.40000   |   -0.48695   0.00000  -0.74478    |
 |   759    0.00000   0.30000   0.40000   |    0.00000   0.48695   0.74478    |
 |   760    0.00000  -0.30000  -0.40000   |    0.00000  -0.48695  -0.74478    |
 |   761   -0.30000   0.00000   0.40000   |   -0.48695   0.00000   0.74478    |
 |   762    0.30000   0.00000  -0.40000   |    0.48695   0.00000  -0.74478    |
 |   763    0.00000  -0.30000   0.40000   |    0.00000  -0.48695   0.74478    |
 |   764    0.00000   0.30000  -0.40000   |    0.00000   0.48695  -0.74478    |
 |   765   -0.40000   0.00000  -0.40000   |   -0.64927   0.00000  -0.74478    |
 |   766    0.00000   0.40000   0.40000   |    0.00000   0.64927   0.74478    |
 |   767    0.00000  -0.40000  -0.40000   |    0.00000  -0.64927  -0.74478    |
 |   768   -0.40000   0.00000   0.40000   |   -0.64927   0.00000   0.74478    |
 |   769    0.40000   0.00000  -0.40000   |    0.64927   0.00000  -0.74478    |
 |   770    0.00000  -0.40000   0.40000   |    0.00000  -0.64927   0.74478    |
 |   771    0.00000   0.40000  -0.40000   |    0.00000   0.64927  -0.74478    |
 |   772   -0.50000   0.00000  -0.40000   |   -0.81159   0.00000  -0.74478    |
 |   773    0.00000   0.50000   0.40000   |    0.00000   0.81159   0.74478    |
 |   774    0.00000  -0.50000  -0.40000   |    0.00000  -0.81159  -0.74478    |
 |   775   -0.10000  -0.10000  -0.40000   |   -0.16232  -0.16232  -0.74478    |
 |   776   -0.10000   0.10000   0.40000   |   -0.16232   0.16232   0.74478    |
 |   777    0.10000  -0.10000  -0.40000   |    0.16232  -0.16232  -0.74478    |
 |   778   -0.10000  -0.10000   0.40000   |   -0.16232  -0.16232   0.74478    |
 |   779    0.10000   0.10000  -0.40000   |    0.16232   0.16232  -0.74478    |
 |   780    0.10000  -0.10000   0.40000   |    0.16232  -0.16232   0.74478    |
 |   781   -0.10000   0.10000  -0.40000   |   -0.16232   0.16232  -0.74478    |
 |   782   -0.20000  -0.10000  -0.40000   |   -0.32463  -0.16232  -0.74478    |
 |   783   -0.10000   0.20000   0.40000   |   -0.16232   0.32463   0.74478    |
 |   784    0.10000  -0.20000  -0.40000   |    0.16232  -0.32463  -0.74478    |
 |   785   -0.20000  -0.10000   0.40000   |   -0.32463  -0.16232   0.74478    |
 |   786    0.20000   0.10000  -0.40000   |    0.32463   0.16232  -0.74478    |
 |   787    0.10000  -0.20000   0.40000   |    0.16232  -0.32463   0.74478    |
 |   788   -0.10000   0.20000  -0.40000   |   -0.16232   0.32463  -0.74478    |
 |   789   -0.20000   0.10000  -0.40000   |   -0.32463   0.16232  -0.74478    |
 |   790    0.20000  -0.10000   0.40000   |    0.32463  -0.16232   0.74478    |
 |   791    0.10000   0.20000  -0.40000   |    0.16232   0.32463  -0.74478    |
 |   792   -0.10000  -0.20000   0.40000   |   -0.16232  -0.32463   0.74478    |
 |   793    0.20000  -0.10000  -0.40000   |    0.32463  -0.16232  -0.74478    |
 |   794   -0.20000   0.10000   0.40000   |   -0.32463   0.16232   0.74478    |
 |   795   -0.10000  -0.20000  -0.40000   |   -0.16232  -0.32463  -0.74478    |
 |   796    0.10000   0.20000   0.40000   |    0.16232   0.32463   0.74478    |
 |   797   -0.30000  -0.10000  -0.40000   |   -0.48695  -0.16232  -0.74478    |
 |   798   -0.10000   0.30000   0.40000   |   -0.16232   0.48695   0.74478    |
 |   799    0.10000  -0.30000  -0.40000   |    0.16232  -0.48695  -0.74478    |
 |   800   -0.30000  -0.10000   0.40000   |   -0.48695  -0.16232   0.74478    |
 |   801    0.30000   0.10000  -0.40000   |    0.48695   0.16232  -0.74478    |
 |   802    0.10000  -0.30000   0.40000   |    0.16232  -0.48695   0.74478    |
 |   803   -0.10000   0.30000  -0.40000   |   -0.16232   0.48695  -0.74478    |
 |   804   -0.30000   0.10000  -0.40000   |   -0.48695   0.16232  -0.74478    |
 |   805    0.30000  -0.10000   0.40000   |    0.48695  -0.16232   0.74478    |
 |   806    0.10000   0.30000  -0.40000   |    0.16232   0.48695  -0.74478    |
 |   807   -0.10000  -0.30000   0.40000   |   -0.16232  -0.48695   0.74478    |
 |   808    0.30000  -0.10000  -0.40000   |    0.48695  -0.16232  -0.74478    |
 |   809   -0.30000   0.10000   0.40000   |   -0.48695   0.16232   0.74478    |
 |   810   -0.10000  -0.30000  -0.40000   |   -0.16232  -0.48695  -0.74478    |
 |   811    0.10000   0.30000   0.40000   |    0.16232   0.48695   0.74478    |
 |   812   -0.40000  -0.10000  -0.40000   |   -0.64927  -0.16232  -0.74478    |
 |   813   -0.10000   0.40000   0.40000   |   -0.16232   0.64927   0.74478    |
 |   814    0.10000  -0.40000  -0.40000   |    0.16232  -0.64927  -0.74478    |
 |   815   -0.40000  -0.10000   0.40000   |   -0.64927  -0.16232   0.74478    |
 |   816    0.40000   0.10000  -0.40000   |    0.64927   0.16232  -0.74478    |
 |   817    0.10000  -0.40000   0.40000   |    0.16232  -0.64927   0.74478    |
 |   818   -0.10000   0.40000  -0.40000   |   -0.16232   0.64927  -0.74478    |
 |   819   -0.40000   0.10000  -0.40000   |   -0.64927   0.16232  -0.74478    |
 |   820    0.40000  -0.10000   0.40000   |    0.64927  -0.16232   0.74478    |
 |   821    0.10000   0.40000  -0.40000   |    0.16232   0.64927  -0.74478    |
 |   822   -0.10000  -0.40000   0.40000   |   -0.16232  -0.64927   0.74478    |
 |   823    0.40000  -0.10000  -0.40000   |    0.64927  -0.16232  -0.74478    |
 |   824   -0.40000   0.10000   0.40000   |   -0.64927   0.16232   0.74478    |
 |   825   -0.10000  -0.40000  -0.40000   |   -0.16232  -0.64927  -0.74478    |
 |   826    0.10000   0.40000   0.40000   |    0.16232   0.64927   0.74478    |
 |   827   -0.50000  -0.10000  -0.40000   |   -0.81159  -0.16232  -0.74478    |
 |   828   -0.10000   0.50000   0.40000   |   -0.16232   0.81159   0.74478    |
 |   829    0.10000  -0.50000  -0.40000   |    0.16232  -0.81159  -0.74478    |
 |   830   -0.50000  -0.10000   0.40000   |   -0.81159  -0.16232   0.74478    |
 |   831    0.50000   0.10000  -0.40000   |    0.81159   0.16232  -0.74478    |
 |   832    0.10000  -0.50000   0.40000   |    0.16232  -0.81159   0.74478    |
 |   833   -0.10000   0.50000  -0.40000   |   -0.16232   0.81159  -0.74478    |
 |   834   -0.20000  -0.20000  -0.40000   |   -0.32463  -0.32463  -0.74478    |
 |   835   -0.20000   0.20000   0.40000   |   -0.32463   0.32463   0.74478    |
 |   836    0.20000  -0.20000  -0.40000   |    0.32463  -0.32463  -0.74478    |
 |   837   -0.20000  -0.20000   0.40000   |   -0.32463  -0.32463   0.74478    |
 |   838    0.20000   0.20000  -0.40000   |    0.32463   0.32463  -0.74478    |
 |   839    0.20000  -0.20000   0.40000   |    0.32463  -0.32463   0.74478    |
 |   840   -0.20000   0.20000  -0.40000   |   -0.32463   0.32463  -0.74478    |
 |   841   -0.30000  -0.20000  -0.40000   |   -0.48695  -0.32463  -0.74478    |
 |   842   -0.20000   0.30000   0.40000   |   -0.32463   0.48695   0.74478    |
 |   843    0.20000  -0.30000  -0.40000   |    0.32463  -0.48695  -0.74478    |
 |   844   -0.30000  -0.20000   0.40000   |   -0.48695  -0.32463   0.74478    |
 |   845    0.30000   0.20000  -0.40000   |    0.48695   0.32463  -0.74478    |
 |   846    0.20000  -0.30000   0.40000   |    0.32463  -0.48695   0.74478    |
 |   847   -0.20000   0.30000  -0.40000   |   -0.32463   0.48695  -0.74478    |
 |   848   -0.30000   0.20000  -0.40000   |   -0.48695   0.32463  -0.74478    |
 |   849    0.30000  -0.20000   0.40000   |    0.48695  -0.32463   0.74478    |
 |   850    0.20000   0.30000  -0.40000   |    0.32463   0.48695  -0.74478    |
 |   851   -0.20000  -0.30000   0.40000   |   -0.32463  -0.48695   0.74478    |
 |   852    0.30000  -0.20000  -0.40000   |    0.48695  -0.32463  -0.74478    |
 |   853   -0.30000   0.20000   0.40000   |   -0.48695   0.32463   0.74478    |
 |   854   -0.20000  -0.30000  -0.40000   |   -0.32463  -0.48695  -0.74478    |
 |   855    0.20000   0.30000   0.40000   |    0.32463   0.48695   0.74478    |
 |   856   -0.40000  -0.20000  -0.40000   |   -0.64927  -0.32463  -0.74478    |
 |   857   -0.20000   0.40000   0.40000   |   -0.32463   0.64927   0.74478    |
 |   858    0.20000  -0.40000  -0.40000   |    0.32463  -0.64927  -0.74478    |
 |   859   -0.40000  -0.20000   0.40000   |   -0.64927  -0.32463   0.74478    |
 |   860    0.40000   0.20000  -0.40000   |    0.64927   0.32463  -0.74478    |
 |   861    0.20000  -0.40000   0.40000   |    0.32463  -0.64927   0.74478    |
 |   862   -0.20000   0.40000  -0.40000   |   -0.32463   0.64927  -0.74478    |
 |   863   -0.40000   0.20000  -0.40000   |   -0.64927   0.32463  -0.74478    |
 |   864    0.40000  -0.20000   0.40000   |    0.64927  -0.32463   0.74478    |
 |   865    0.20000   0.40000  -0.40000   |    0.32463   0.64927  -0.74478    |
 |   866   -0.20000  -0.40000   0.40000   |   -0.32463  -0.64927   0.74478    |
 |   867    0.40000  -0.20000  -0.40000   |    0.64927  -0.32463  -0.74478    |
 |   868   -0.40000   0.20000   0.40000   |   -0.64927   0.32463   0.74478    |
 |   869   -0.20000  -0.40000  -0.40000   |   -0.32463  -0.64927  -0.74478    |
 |   870    0.20000   0.40000   0.40000   |    0.32463   0.64927   0.74478    |
 |   871   -0.50000  -0.20000  -0.40000   |   -0.81159  -0.32463  -0.74478    |
 |   872   -0.20000   0.50000   0.40000   |   -0.32463   0.81159   0.74478    |
 |   873    0.20000  -0.50000  -0.40000   |    0.32463  -0.81159  -0.74478    |
 |   874   -0.50000  -0.20000   0.40000   |   -0.81159  -0.32463   0.74478    |
 |   875    0.50000   0.20000  -0.40000   |    0.81159   0.32463  -0.74478    |
 |   876    0.20000  -0.50000   0.40000   |    0.32463  -0.81159   0.74478    |
 |   877   -0.20000   0.50000  -0.40000   |   -0.32463   0.81159  -0.74478    |
 |   878   -0.30000  -0.30000  -0.40000   |   -0.48695  -0.48695  -0.74478    |
 |   879   -0.30000   0.30000   0.40000   |   -0.48695   0.48695   0.74478    |
 |   880    0.30000  -0.30000  -0.40000   |    0.48695  -0.48695  -0.74478    |
 |   881   -0.30000  -0.30000   0.40000   |   -0.48695  -0.48695   0.74478    |
 |   882    0.30000   0.30000  -0.40000   |    0.48695   0.48695  -0.74478    |
 |   883    0.30000  -0.30000   0.40000   |    0.48695  -0.48695   0.74478    |
 |   884   -0.30000   0.30000  -0.40000   |   -0.48695   0.48695  -0.74478    |
 |   885   -0.40000  -0.30000  -0.40000   |   -0.64927  -0.48695  -0.74478    |
 |   886   -0.30000   0.40000   0.40000   |   -0.48695   0.64927   0.74478    |
 |   887    0.30000  -0.40000  -0.40000   |    0.48695  -0.64927  -0.74478    |
 |   888   -0.40000  -0.30000   0.40000   |   -0.64927  -0.48695   0.74478    |
 |   889    0.40000   0.30000  -0.40000   |    0.64927   0.48695  -0.74478    |
 |   890    0.30000  -0.40000   0.40000   |    0.48695  -0.64927   0.74478    |
 |   891   -0.30000   0.40000  -0.40000   |   -0.48695   0.64927  -0.74478    |
 |   892   -0.40000   0.30000  -0.40000   |   -0.64927   0.48695  -0.74478    |
 |   893    0.40000  -0.30000   0.40000   |    0.64927  -0.48695   0.74478    |
 |   894    0.30000   0.40000  -0.40000   |    0.48695   0.64927  -0.74478    |
 |   895   -0.30000  -0.40000   0.40000   |   -0.48695  -0.64927   0.74478    |
 |   896    0.40000  -0.30000  -0.40000   |    0.64927  -0.48695  -0.74478    |
 |   897   -0.40000   0.30000   0.40000   |   -0.64927   0.48695   0.74478    |
[...]
     802      19.67927753      19.67927713       1.996E-08     14.72    <-- DIS
     803      19.67927751      19.67927712       1.983E-08     14.74    <-- DIS
     804      19.67927750      19.67927711       1.971E-08     14.75    <-- DIS
     805      19.67927749      19.67927711       1.958E-08     14.77    <-- DIS
     806      19.67927748      19.67927710       1.946E-08     14.79    <-- DIS
     807      19.67927747      19.67927709       1.934E-08     14.81    <-- DIS
     808      19.67927746      19.67927708       1.921E-08     14.83    <-- DIS
     809      19.67927744      19.67927707       1.909E-08     14.85    <-- DIS
     810      19.67927743      19.67927706       1.897E-08     14.86    <-- DIS
     811      19.67927742      19.67927705       1.885E-08     14.88    <-- DIS
     812      19.67927741      19.67927704       1.873E-08     14.90    <-- DIS
     813      19.67927740      19.67927703       1.862E-08     14.92    <-- DIS
     814      19.67927739      19.67927703       1.850E-08     14.94    <-- DIS
     815      19.67927738      19.67927702       1.838E-08     14.95    <-- DIS
     816      19.67927737      19.67927701       1.827E-08     14.97    <-- DIS
     817      19.67927736      19.67927700       1.815E-08     14.99    <-- DIS
     818      19.67927735      19.67927699       1.804E-08     15.01    <-- DIS
     819      19.67927734      19.67927698       1.793E-08     15.03    <-- DIS
     820      19.67927733      19.67927697       1.781E-08     15.04    <-- DIS
     821      19.67927731      19.67927697       1.770E-08     15.06    <-- DIS
     822      19.67927730      19.67927696       1.759E-08     15.08    <-- DIS
     823      19.67927729      19.67927695       1.748E-08     15.10    <-- DIS
     824      19.67927728      19.67927694       1.737E-08     15.12    <-- DIS
     825      19.67927727      19.67927693       1.726E-08     15.14    <-- DIS
     826      19.67927726      19.67927693       1.716E-08     15.15    <-- DIS
     827      19.67927725      19.67927692       1.705E-08     15.17    <-- DIS
     828      19.67927724      19.67927691       1.694E-08     15.19    <-- DIS
     829      19.67927723      19.67927690       1.684E-08     15.21    <-- DIS
     830      19.67927722      19.67927689       1.673E-08     15.23    <-- DIS
     831      19.67927721      19.67927689       1.663E-08     15.24    <-- DIS
     832      19.67927720      19.67927688       1.653E-08     15.26    <-- DIS
     833      19.67927720      19.67927687       1.643E-08     15.28    <-- DIS
     834      19.67927719      19.67927686       1.632E-08     15.30    <-- DIS
     835      19.67927718      19.67927686       1.622E-08     15.32    <-- DIS
     836      19.67927717      19.67927685       1.612E-08     15.33    <-- DIS
     837      19.67927716      19.67927684       1.602E-08     15.35    <-- DIS
     838      19.67927715      19.67927683       1.592E-08     15.37    <-- DIS
     839      19.67927714      19.67927683       1.583E-08     15.39    <-- DIS
     840      19.67927713      19.67927682       1.573E-08     15.41    <-- DIS
     841      19.67927712      19.67927681       1.563E-08     15.42    <-- DIS
     842      19.67927711      19.67927681       1.554E-08     15.44    <-- DIS
     843      19.67927710      19.67927680       1.544E-08     15.46    <-- DIS
     844      19.67927709      19.67927679       1.535E-08     15.48    <-- DIS
     845      19.67927708      19.67927678       1.525E-08     15.50    <-- DIS
     846      19.67927708      19.67927678       1.516E-08     15.52    <-- DIS
     847      19.67927707      19.67927677       1.507E-08     15.55    <-- DIS
     848      19.67927706      19.67927676       1.497E-08     15.57    <-- DIS
     849      19.67927705      19.67927676       1.488E-08     15.59    <-- DIS
     850      19.67927704      19.67927675       1.479E-08     15.61    <-- DIS
     851      19.67927703      19.67927674       1.470E-08     15.63    <-- DIS
     852      19.67927702      19.67927674       1.461E-08     15.65    <-- DIS
     853      19.67927701      19.67927673       1.452E-08     15.66    <-- DIS
     854      19.67927701      19.67927672       1.443E-08     15.68    <-- DIS
     855      19.67927700      19.67927671       1.435E-08     15.70    <-- DIS
     856      19.67927699      19.67927671       1.426E-08     15.72    <-- DIS
     857      19.67927698      19.67927670       1.417E-08     15.74    <-- DIS
     858      19.67927697      19.67927669       1.409E-08     15.76    <-- DIS
     859      19.67927696      19.67927669       1.400E-08     15.78    <-- DIS
     860      19.67927696      19.67927668       1.392E-08     15.80    <-- DIS
     861      19.67927695      19.67927667       1.383E-08     15.82    <-- DIS
     862      19.67927694      19.67927667       1.375E-08     15.84    <-- DIS
     863      19.67927693      19.67927666       1.367E-08     15.86    <-- DIS
     864      19.67927692      19.67927665       1.358E-08     15.88    <-- DIS
     865      19.67927691      19.67927665       1.350E-08     15.90    <-- DIS
     866      19.67927691      19.67927664       1.342E-08     15.91    <-- DIS
     867      19.67927690      19.67927664       1.334E-08     15.93    <-- DIS
     868      19.67927689      19.67927663       1.326E-08     15.95    <-- DIS
     869      19.67927688      19.67927662       1.318E-08     15.97    <-- DIS
     870      19.67927687      19.67927662       1.310E-08     15.99    <-- DIS
     871      19.67927687      19.67927661       1.302E-08     16.00    <-- DIS
     872      19.67927686      19.67927660       1.295E-08     16.02    <-- DIS
     873      19.67927685      19.67927660       1.287E-08     16.04    <-- DIS
     874      19.67927684      19.67927659       1.279E-08     16.06    <-- DIS
     875      19.67927683      19.67927658       1.271E-08     16.08    <-- DIS
     876      19.67927683      19.67927658       1.264E-08     16.09    <-- DIS
     877      19.67927682      19.67927657       1.256E-08     16.11    <-- DIS
     878      19.67927681      19.67927656       1.249E-08     16.13    <-- DIS
     879      19.67927680      19.67927656       1.241E-08     16.15    <-- DIS
     880      19.67927679      19.67927655       1.234E-08     16.17    <-- DIS
     881      19.67927679      19.67927655       1.227E-08     16.18    <-- DIS
     882      19.67927678      19.67927654       1.220E-08     16.20    <-- DIS
     883      19.67927677      19.67927653       1.212E-08     16.22    <-- DIS
     884      19.67927676      19.67927653       1.205E-08     16.24    <-- DIS
     885      19.67927676      19.67927652       1.198E-08     16.26    <-- DIS
     886      19.67927675      19.67927651       1.191E-08     16.28    <-- DIS
     887      19.67927674      19.67927651       1.184E-08     16.29    <-- DIS
     888      19.67927673      19.67927650       1.177E-08     16.31    <-- DIS
     889      19.67927672      19.67927649       1.170E-08     16.33    <-- DIS
     890      19.67927672      19.67927649       1.163E-08     16.35    <-- DIS
     891      19.67927671      19.67927648       1.156E-08     16.37    <-- DIS
     892      19.67927670      19.67927648       1.150E-08     16.38    <-- DIS
     893      19.67927669      19.67927647       1.143E-08     16.40    <-- DIS
     894      19.67927669      19.67927646       1.136E-08     16.42    <-- DIS
     895      19.67927668      19.67927646       1.130E-08     16.44    <-- DIS
     896      19.67927667      19.67927645       1.123E-08     16.46    <-- DIS
     897      19.67927666      19.67927644       1.117E-08     16.47    <-- DIS
     898      19.67927666      19.67927644       1.110E-08     16.49    <-- DIS
     899      19.67927665      19.67927643       1.104E-08     16.51    <-- DIS
     900      19.67927664      19.67927643       1.097E-08     16.53    <-- DIS
     901      19.67927663      19.67927642       1.091E-08     16.55    <-- DIS
     902      19.67927663      19.67927641       1.085E-08     16.57    <-- DIS
     903      19.67927662      19.67927641       1.078E-08     16.58    <-- DIS
     904      19.67927661      19.67927640       1.072E-08     16.60    <-- DIS
     905      19.67927660      19.67927639       1.066E-08     16.62    <-- DIS
     906      19.67927660      19.67927639       1.060E-08     16.64    <-- DIS
     907      19.67927659      19.67927638       1.054E-08     16.66    <-- DIS
     908      19.67927658      19.67927637       1.048E-08     16.67    <-- DIS
     909      19.67927657      19.67927637       1.042E-08     16.69    <-- DIS
     910      19.67927657      19.67927636       1.036E-08     16.71    <-- DIS
     911      19.67927656      19.67927636       1.030E-08     16.73    <-- DIS
     912      19.67927655      19.67927635       1.024E-08     16.75    <-- DIS
     913      19.67927654      19.67927634       1.018E-08     16.76    <-- DIS
     914      19.67927654      19.67927634       1.012E-08     16.78    <-- DIS
     915      19.67927653      19.67927633       1.007E-08     16.80    <-- DIS
     916      19.67927652      19.67927632       1.001E-08     16.82    <-- DIS
     917      19.67927651      19.67927632       9.952E-09     16.84    <-- DIS
     918      19.67927651      19.67927631       9.895E-09     16.85    <-- DIS
     919      19.67927650      19.67927630       9.839E-09     16.87    <-- DIS
     920      19.67927649      19.67927630       9.784E-09     16.89    <-- DIS
     921      19.67927648      19.67927629       9.729E-09     16.91    <-- DIS
     922      19.67927647      19.67927628       9.674E-09     16.93    <-- DIS
     923      19.67927647      19.67927628       9.620E-09     16.95    <-- DIS
     924      19.67927646      19.67927627       9.566E-09     16.96    <-- DIS
     925      19.67927645      19.67927626       9.513E-09     16.98    <-- DIS
     926      19.67927644      19.67927626       9.460E-09     17.00    <-- DIS
     927      19.67927644      19.67927625       9.407E-09     17.02    <-- DIS
     928      19.67927643      19.67927624       9.355E-09     17.04    <-- DIS
     929      19.67927642      19.67927624       9.303E-09     17.05    <-- DIS
     930      19.67927641      19.67927623       9.251E-09     17.07    <-- DIS
     931      19.67927641      19.67927622       9.200E-09     17.09    <-- DIS
     932      19.67927640      19.67927622       9.149E-09     17.11    <-- DIS
     933      19.67927639      19.67927621       9.099E-09     17.13    <-- DIS
     934      19.67927638      19.67927620       9.049E-09     17.14    <-- DIS
     935      19.67927637      19.67927620       8.999E-09     17.16    <-- DIS
     936      19.67927637      19.67927619       8.950E-09     17.18    <-- DIS
     937      19.67927636      19.67927618       8.901E-09     17.20    <-- DIS
     938      19.67927635      19.67927618       8.852E-09     17.22    <-- DIS
     939      19.67927634      19.67927617       8.804E-09     17.24    <-- DIS
     940      19.67927633      19.67927616       8.756E-09     17.25    <-- DIS
     941      19.67927633      19.67927616       8.709E-09     17.27    <-- DIS
     942      19.67927632      19.67927615       8.661E-09     17.29    <-- DIS
     943      19.67927631      19.67927614       8.615E-09     17.31    <-- DIS
     944      19.67927630      19.67927613       8.568E-09     17.33    <-- DIS
     945      19.67927629      19.67927613       8.522E-09     17.35    <-- DIS
     946      19.67927629      19.67927612       8.476E-09     17.37    <-- DIS
     947      19.67927628      19.67927611       8.431E-09     17.39    <-- DIS
     948      19.67927627      19.67927611       8.386E-09     17.41    <-- DIS
     949      19.67927626      19.67927610       8.341E-09     17.43    <-- DIS
     950      19.67927625      19.67927609       8.297E-09     17.44    <-- DIS
     951      19.67927625      19.67927608       8.253E-09     17.46    <-- DIS
     952      19.67927624      19.67927608       8.209E-09     17.48    <-- DIS
     953      19.67927623      19.67927607       8.166E-09     17.50    <-- DIS
     954      19.67927622      19.67927606       8.123E-09     17.52    <-- DIS
     955      19.67927621      19.67927605       8.080E-09     17.53    <-- DIS
     956      19.67927620      19.67927605       8.038E-09     17.55    <-- DIS
     957      19.67927620      19.67927604       7.996E-09     17.57    <-- DIS
     958      19.67927619      19.67927603       7.954E-09     17.59    <-- DIS
     959      19.67927618      19.67927602       7.913E-09     17.61    <-- DIS
     960      19.67927617      19.67927602       7.872E-09     17.63    <-- DIS
     961      19.67927616      19.67927601       7.831E-09     17.64    <-- DIS
     962      19.67927615      19.67927600       7.790E-09     17.66    <-- DIS
     963      19.67927614      19.67927599       7.750E-09     17.68    <-- DIS
     964      19.67927614      19.67927598       7.711E-09     17.70    <-- DIS
     965      19.67927613      19.67927598       7.671E-09     17.72    <-- DIS
     966      19.67927612      19.67927597       7.632E-09     17.73    <-- DIS
     967      19.67927611      19.67927596       7.593E-09     17.75    <-- DIS
     968      19.67927610      19.67927595       7.555E-09     17.77    <-- DIS
     969      19.67927609      19.67927594       7.517E-09     17.79    <-- DIS
     970      19.67927608      19.67927594       7.479E-09     17.81    <-- DIS
     971      19.67927607      19.67927593       7.441E-09     17.82    <-- DIS
     972      19.67927606      19.67927592       7.404E-09     17.84    <-- DIS
     973      19.67927606      19.67927591       7.367E-09     17.86    <-- DIS
     974      19.67927605      19.67927590       7.330E-09     17.88    <-- DIS
     975      19.67927604      19.67927589       7.294E-09     17.90    <-- DIS
     976      19.67927603      19.67927589       7.258E-09     17.91    <-- DIS
     977      19.67927602      19.67927588       7.222E-09     17.93    <-- DIS
     978      19.67927601      19.67927587       7.187E-09     17.95    <-- DIS
     979      19.67927600      19.67927586       7.152E-09     17.97    <-- DIS
     980      19.67927599      19.67927585       7.117E-09     17.99    <-- DIS
     981      19.67927598      19.67927584       7.082E-09     18.01    <-- DIS
     982      19.67927597      19.67927583       7.048E-09     18.02    <-- DIS
     983      19.67927596      19.67927582       7.014E-09     18.04    <-- DIS
     984      19.67927595      19.67927581       6.980E-09     18.06    <-- DIS
     985      19.67927594      19.67927581       6.947E-09     18.08    <-- DIS
     986      19.67927593      19.67927580       6.914E-09     18.10    <-- DIS
     987      19.67927592      19.67927579       6.881E-09     18.11    <-- DIS
     988      19.67927591      19.67927578       6.849E-09     18.13    <-- DIS
     989      19.67927590      19.67927577       6.816E-09     18.15    <-- DIS
     990      19.67927589      19.67927576       6.784E-09     18.17    <-- DIS
     991      19.67927588      19.67927575       6.753E-09     18.19    <-- DIS
     992      19.67927587      19.67927574       6.721E-09     18.20    <-- DIS
     993      19.67927586      19.67927573       6.690E-09     18.22    <-- DIS
     994      19.67927585      19.67927572       6.660E-09     18.24    <-- DIS
     995      19.67927584      19.67927571       6.629E-09     18.26    <-- DIS
     996      19.67927583      19.67927570       6.599E-09     18.28    <-- DIS
     997      19.67927582      19.67927569       6.569E-09     18.30    <-- DIS
     998      19.67927581      19.67927568       6.539E-09     18.31    <-- DIS
     999      19.67927580      19.67927567       6.510E-09     18.33    <-- DIS
    1000      19.67927579      19.67927566       6.481E-09     18.35    <-- DIS

     <<< Warning: Maximum number of disentanglement iterations reached >>>
          <<< Disentanglement convergence criteria not satisfied >>>

        Final Omega_I    19.67927566 (Ang^2)

 +----------------------------------------------------------------------------+

 Time to disentangle bands     18.800 (sec)

 Writing checkpoint file wannier90.chk... done

 
 *------------------------------- WANNIERISE ---------------------------------*
 +--------------------------------------------------------------------+<-- CONV
 | Iter  Delta Spread     RMS Gradient      Spread (Ang^2)      Time  |<-- CONV
 +--------------------------------------------------------------------+<-- CONV
 
 ------------------------------------------------------------------------------
 Initial State
  WF centre and spread    1  (  1.969588,  1.934535,  1.657040 )    13.09512340
  WF centre and spread    2  (  1.939044,  1.936435,  1.685032 )     5.76587985
  WF centre and spread    3  ( -0.000000,  0.000000, -0.000004 )     1.26763857
  WF centre and spread    4  (  0.000132,  0.000330, -0.000146 )     1.25814383
  WF centre and spread    5  (  0.000332, -0.000137, -0.000146 )     1.25814598
  WF centre and spread    6  ( -0.000000,  0.000000, -0.000000 )     2.40139656
  WF centre and spread    7  ( -0.000000,  0.000000,  0.000002 )     1.71092484
  Sum of centres and spreads (  3.909097,  3.871163,  3.341779 )    26.75725303
 
      0     0.268E+02     0.0000000000       26.7572530312      18.47  <-- CONV
        O_D=      3.8450283 O_OD=      3.2329490 O_TOT=     26.7572530 <-- SPRD
 ------------------------------------------------------------------------------
 Final State
  WF centre and spread    1  (  1.969588,  1.934535,  1.657040 )    13.09512340
  WF centre and spread    2  (  1.939044,  1.936435,  1.685032 )     5.76587985
  WF centre and spread    3  ( -0.000000,  0.000000, -0.000004 )     1.26763857
  WF centre and spread    4  (  0.000132,  0.000330, -0.000146 )     1.25814383
  WF centre and spread    5  (  0.000332, -0.000137, -0.000146 )     1.25814598
  WF centre and spread    6  ( -0.000000,  0.000000, -0.000000 )     2.40139656
  WF centre and spread    7  ( -0.000000,  0.000000,  0.000002 )     1.71092484
  Sum of centres and spreads (  3.909097,  3.871163,  3.341779 )    26.75725303
 
         Spreads (Ang^2)       Omega I      =    19.679275662
        ================       Omega D      =     3.845028323
                               Omega OD     =     3.232949046
    Final Spread (Ang^2)       Omega Total  =    26.757253031
 ------------------------------------------------------------------------------
 Time for wannierise            0.004 (sec)

 Writing checkpoint file wannier90.chk... done

 *---------------------------------------------------------------------------*
 |                               PLOTTING                                    |
 *---------------------------------------------------------------------------*
 
 Time for plotting              1.880 (sec)
 Total Execution Time          40.152 (sec)

 *===========================================================================*
 |                             TIMING INFORMATION                            |
 *===========================================================================*
 |    Tag                                                Ncalls      Time (s)|
 |---------------------------------------------------------------------------|
 |kmesh: get                                        :         1         0.604|
 |overlap: allocate                                 :         1         0.000|
 |overlap: read                                     :         1        18.580|
 |dis: main                                         :         1        18.800|
 |wann: main                                        :         1         0.004|
 |plot: main                                        :         1         1.880|
 *---------------------------------------------------------------------------*
 
 All done: wannier90 exiting
