 written on 23Nov2019 at 12:48:25 
           7
        1331
    8    4    4    4    4    4    4    4    4    4    8    4    2    2    2
    2    2    2    2    2    2    4    4    2    2    2    2    2    2    2
    2    2    4    4    2    2    2    2    2    2    2    2    2    4    4
    2    2    2    2    2    2    2    2    2    4    4    2    2    2    2
    2    2    2    2    2    4    4    2    2    2    2    2    2    2    2
    2    4    4    2    2    2    2    2    2    2    2    2    4    4    2
    2    2    2    2    2    2    2    2    4    4    2    2    2    2    2
    2    2    2    2    4    8    4    4    4    4    4    4    4    4    4
    8    4    2    2    2    2    2    2    2    2    2    4    2    1    1
    1    1    1    1    1    1    1    2    2    1    1    1    1    1    1
    1    1    1    2    2    1    1    1    1    1    1    1    1    1    2
    2    1    1    1    1    1    1    1    1    1    2    2    1    1    1
    1    1    1    1    1    1    2    2    1    1    1    1    1    1    1
    1    1    2    2    1    1    1    1    1    1    1    1    1    2    2
    1    1    1    1    1    1    1    1    1    2    2    1    1    1    1
    1    1    1    1    1    2    4    2    2    2    2    2    2    2    2
    2    4    4    2    2    2    2    2    2    2    2    2    4    2    1
    1    1    1    1    1    1    1    1    2    2    1    1    1    1    1
    1    1    1    1    2    2    1    1    1    1    1    1    1    1    1
    2    2    1    1    1    1    1    1    1    1    1    2    2    1    1
    1    1    1    1    1    1    1    2    2    1    1    1    1    1    1
    1    1    1    2    2    1    1    1    1    1    1    1    1    1    2
    2    1    1    1    1    1    1    1    1    1    2    2    1    1    1
    1    1    1    1    1    1    2    4    2    2    2    2    2    2    2
    2    2    4    4    2    2    2    2    2    2    2    2    2    4    2
    1    1    1    1    1    1    1    1    1    2    2    1    1    1    1
    1    1    1    1    1    2    2    1    1    1    1    1    1    1    1
    1    2    2    1    1    1    1    1    1    1    1    1    2    2    1
    1    1    1    1    1    1    1    1    2    2    1    1    1    1    1
    1    1    1    1    2    2    1    1    1    1    1    1    1    1    1
    2    2    1    1    1    1    1    1    1    1    1    2    2    1    1
    1    1    1    1    1    1    1    2    4    2    2    2    2    2    2
    2    2    2    4    4    2    2    2    2    2    2    2    2    2    4
    2    1    1    1    1    1    1    1    1    1    2    2    1    1    1
    1    1    1    1    1    1    2    2    1    1    1    1    1    1    1
    1    1    2    2    1    1    1    1    1    1    1    1    1    2    2
    1    1    1    1    1    1    1    1    1    2    2    1    1    1    1
    1    1    1    1    1    2    2    1    1    1    1    1    1    1    1
    1    2    2    1    1    1    1    1    1    1    1    1    2    2    1
    1    1    1    1    1    1    1    1    2    4    2    2    2    2    2
    2    2    2    2    4    4    2    2    2    2    2    2    2    2    2
    4    2    1    1    1    1    1    1    1    1    1    2    2    1    1
    1    1    1    1    1    1    1    2    2    1    1    1    1    1    1
    1    1    1    2    2    1    1    1    1    1    1    1    1    1    2
    2    1    1    1    1    1    1    1    1    1    2    2    1    1    1
    1    1    1    1    1    1    2    2    1    1    1    1    1    1    1
    1    1    2    2    1    1    1    1    1    1    1    1    1    2    2
    1    1    1    1    1    1    1    1    1    2    4    2    2    2    2
    2    2    2    2    2    4    4    2    2    2    2    2    2    2    2
    2    4    2    1    1    1    1    1    1    1    1    1    2    2    1
    1    1    1    1    1    1    1    1    2    2    1    1    1    1    1
    1    1    1    1    2    2    1    1    1    1    1    1    1    1    1
    2    2    1    1    1    1    1    1    1    1    1    2    2    1    1
    1    1    1    1    1    1    1    2    2    1    1    1    1    1    1
    1    1    1    2    2    1    1    1    1    1    1    1    1    1    2
    2    1    1    1    1    1    1    1    1    1    2    4    2    2    2
    2    2    2    2    2    2    4    4    2    2    2    2    2    2    2
    2    2    4    2    1    1    1    1    1    1    1    1    1    2    2
    1    1    1    1    1    1    1    1    1    2    2    1    1    1    1
    1    1    1    1    1    2    2    1    1    1    1    1    1    1    1
    1    2    2    1    1    1    1    1    1    1    1    1    2    2    1
    1    1    1    1    1    1    1    1    2    2    1    1    1    1    1
    1    1    1    1    2    2    1    1    1    1    1    1    1    1    1
    2    2    1    1    1    1    1    1    1    1    1    2    4    2    2
    2    2    2    2    2    2    2    4    4    2    2    2    2    2    2
    2    2    2    4    2    1    1    1    1    1    1    1    1    1    2
    2    1    1    1    1    1    1    1    1    1    2    2    1    1    1
    1    1    1    1    1    1    2    2    1    1    1    1    1    1    1
    1    1    2    2    1    1    1    1    1    1    1    1    1    2    2
    1    1    1    1    1    1    1    1    1    2    2    1    1    1    1
    1    1    1    1    1    2    2    1    1    1    1    1    1    1    1
    1    2    2    1    1    1    1    1    1    1    1    1    2    4    2
    2    2    2    2    2    2    2    2    4    4    2    2    2    2    2
    2    2    2    2    4    2    1    1    1    1    1    1    1    1    1
    2    2    1    1    1    1    1    1    1    1    1    2    2    1    1
    1    1    1    1    1    1    1    2    2    1    1    1    1    1    1
    1    1    1    2    2    1    1    1    1    1    1    1    1    1    2
    2    1    1    1    1    1    1    1    1    1    2    2    1    1    1
    1    1    1    1    1    1    2    2    1    1    1    1    1    1    1
    1    1    2    2    1    1    1    1    1    1    1    1    1    2    4
    2    2    2    2    2    2    2    2    2    4    8    4    4    4    4
    4    4    4    4    4    8    4    2    2    2    2    2    2    2    2
    2    4    4    2    2    2    2    2    2    2    2    2    4    4    2
    2    2    2    2    2    2    2    2    4    4    2    2    2    2    2
    2    2    2    2    4    4    2    2    2    2    2    2    2    2    2
    4    4    2    2    2    2    2    2    2    2    2    4    4    2    2
    2    2    2    2    2    2    2    4    4    2    2    2    2    2    2
    2    2    2    4    4    2    2    2    2    2    2    2    2    2    4
    8    4    4    4    4    4    4    4    4    4    8
   -5   -5   -5    1    1   -0.000777    0.000000
   -5   -5   -5    2    1   -0.000000    0.000000
   -5   -5   -5    3    1   -0.000638    0.000901
   -5   -5   -5    4    1   -0.000071    0.000090
   -5   -5   -5    5    1   -0.000071   -0.000090
   -5   -5   -5    6    1    0.000000    0.000002
   -5   -5   -5    7    1    0.000199   -0.000000
   -5   -5   -5    1    2   -0.000000   -0.000000
   -5   -5   -5    2    2    0.000321    0.000000
   -5   -5   -5    3    2   -0.000054   -0.000000
   -5   -5   -5    4    2   -0.000051    0.000030
   -5   -5   -5    5    2   -0.000051   -0.000030
   -5   -5   -5    6    2   -0.000385   -0.000286
   -5   -5   -5    7    2    0.000008   -0.000000
   -5   -5   -5    1    3   -0.000638   -0.000901
   -5   -5   -5    2    3   -0.000054    0.000000
   -5   -5   -5    3    3    0.000188    0.000000
   -5   -5   -5    4    3    0.000102   -0.000070
   -5   -5   -5    5    3   -0.000098    0.000075
   -5   -5   -5    6    3    0.000000    0.000000
   -5   -5   -5    7    3   -0.000000    0.000000
   -5   -5   -5    1    4   -0.000071   -0.000090
   -5   -5   -5    2    4   -0.000051   -0.000030
   -5   -5   -5    3    4    0.000102    0.000070
   -5   -5   -5    4    4    0.000041    0.000000
   -5   -5   -5    5    4   -0.000000    0.000046
   -5   -5   -5    6    4    0.000080    0.000061
   -5   -5   -5    7    4    0.000000    0.000000
   -5   -5   -5    1    5   -0.000071    0.000090
   -5   -5   -5    2    5   -0.000051    0.000030
   -5   -5   -5    3    5   -0.000098   -0.000075
   -5   -5   -5    4    5   -0.000000   -0.000046
   -5   -5   -5    5    5    0.000041    0.000000
   -5   -5   -5    6    5    0.000083    0.000057
   -5   -5   -5    7    5    0.000000   -0.000000
   -5   -5   -5    1    6    0.000000   -0.000002
   -5   -5   -5    2    6   -0.000385    0.000286
   -5   -5   -5    3    6    0.000000   -0.000000
   -5   -5   -5    4    6    0.000080   -0.000061
   -5   -5   -5    5    6    0.000083   -0.000057
   -5   -5   -5    6    6   -0.000013    0.000000
   -5   -5   -5    7    6   -0.000000   -0.000006
   -5   -5   -5    1    7    0.000199    0.000000
   -5   -5   -5    2    7    0.000008    0.000000
   -5   -5   -5    3    7   -0.000000   -0.000000
   -5   -5   -5    4    7    0.000000   -0.000000
   -5   -5   -5    5    7    0.000000    0.000000
   -5   -5   -5    6    7   -0.000000    0.000006
   -5   -5   -5    7    7    0.000216    0.000000
   -5   -5   -4    1    1   -0.000384    0.000000
   -5   -5   -4    2    1   -0.000000    0.000000
   -5   -5   -4    3    1    0.000385   -0.000557
   -5   -5   -4    4    1    0.000043    0.000013
   -5   -5   -4    5    1    0.000043   -0.000013
   -5   -5   -4    6    1   -0.000000   -0.000025
   -5   -5   -4    7    1    0.000048   -0.000000
   -5   -5   -4    1    2    0.000000   -0.000000
   -5   -5   -4    2    2   -0.000177   -0.000000
   -5   -5   -4    3    2    0.000045    0.000000
   -5   -5   -4    4    2    0.000002    0.000015
   -5   -5   -4    5    2    0.000002   -0.000015
   -5   -5   -4    6    2    0.000238    0.000162
   -5   -5   -4    7    2   -0.000039   -0.000000
   -5   -5   -4    1    3    0.000669    0.000901
   -5   -5   -4    2    3   -0.000054    0.000000
   -5   -5   -4    3    3    0.000067   -0.000000
   -5   -5   -4    4    3   -0.000083    0.000057
   -5   -5   -4    5    3    0.000079   -0.000061
   -5   -5   -4    6    3   -0.000000    0.000000
   -5   -5   -4    7    3    0.000000    0.000000
   -5   -5   -4    1    4    0.000071    0.000090
   -5   -5   -4    2    4    0.000051    0.000030
   -5   -5   -4    3    4   -0.000083   -0.000057
   -5   -5   -4    4    4   -0.000029   -0.000000
   -5   -5   -4    5    4   -0.000000   -0.000023
   -5   -5   -4    6    4   -0.000064   -0.000050
   -5   -5   -4    7    4   -0.000000    0.000000
   -5   -5   -4    1    5    0.000071   -0.000090
   -5   -5   -4    2    5    0.000051   -0.000030
   -5   -5   -4    3    5    0.000079    0.000061
   -5   -5   -4    4    5   -0.000000    0.000023
   -5   -5   -4    5    5   -0.000029    0.000000
   -5   -5   -4    6    5   -0.000067   -0.000046
   -5   -5   -4    7    5   -0.000000   -0.000000
   -5   -5   -4    1    6    0.000000   -0.000002
   -5   -5   -4    2    6    0.000385   -0.000273
   -5   -5   -4    3    6   -0.000000    0.000000
   -5   -5   -4    4    6   -0.000064    0.000050
   -5   -5   -4    5    6   -0.000067    0.000046
   -5   -5   -4    6    6    0.000010   -0.000000
   -5   -5   -4    7    6   -0.000000   -0.000000
   -5   -5   -4    1    7    0.000199    0.000000
   -5   -5   -4    2    7    0.000008    0.000000
   -5   -5   -4    3    7   -0.000000   -0.000000
   -5   -5   -4    4    7   -0.000000   -0.000000
   -5   -5   -4    5    7   -0.000000    0.000000
   -5   -5   -4    6    7   -0.000000    0.000000
   -5   -5   -4    7    7    0.000128    0.000000
   -5   -5   -3    1    1   -0.000127   -0.000000
   -5   -5   -3    2    1    0.000001   -0.000000
   -5   -5   -3    3    1    0.000168   -0.000000
   -5   -5   -3    4    1   -0.000000   -0.000041
   -5   -5   -3    5    1   -0.000000    0.000041
   -5   -5   -3    6    1    0.000000    0.000041
   -5   -5   -3    7    1   -0.000259    0.000000
   -5   -5   -3    1    2   -0.000001    0.000000
   -5   -5   -3    2    2   -0.000299    0.000000
   -5   -5   -3    3    2    0.000071   -0.000000
   -5   -5   -3    4    2    0.000058   -0.000042
   -5   -5   -3    5    2    0.000058    0.000042
   -5   -5   -3    6    2   -0.000000    0.000058
   -5   -5   -3    7    2   -0.000035    0.000000
   -5   -5   -3    1    3   -0.000422   -0.000557
   -5   -5   -3    2    3    0.000045   -0.000000
   -5   -5   -3    3    3   -0.000059    0.000000
   -5   -5   -3    4    3    0.000032   -0.000022
   -5   -5   -3    5    3   -0.000030    0.000023
   -5   -5   -3    6    3   -0.000000   -0.000000
   -5   -5   -3    7    3    0.000000   -0.000000
   -5   -5   -3    1    4   -0.000043    0.000013
   -5   -5   -3    2    4   -0.000003    0.000014
   -5   -5   -3    3    4    0.000032    0.000022
   -5   -5   -3    4    4    0.000016    0.000000
   -5   -5   -3    5    4    0.000000   -0.000018
   -5   -5   -3    6    4    0.000025    0.000019
   -5   -5   -3    7    4    0.000000    0.000000
   -5   -5   -3    1    5   -0.000043   -0.000013
   -5   -5   -3    2    5   -0.000003   -0.000014
   -5   -5   -3    3    5   -0.000030   -0.000023
   -5   -5   -3    4    5    0.000000    0.000018
   -5   -5   -3    5    5    0.000016   -0.000000
   -5   -5   -3    6    5    0.000026    0.000018
   -5   -5   -3    7    5   -0.000000   -0.000000
   -5   -5   -3    1    6   -0.000000    0.000025
   -5   -5   -3    2    6   -0.000238    0.000184
   -5   -5   -3    3    6   -0.000000   -0.000000
   -5   -5   -3    4    6    0.000025   -0.000019
   -5   -5   -3    5    6    0.000026   -0.000018
   -5   -5   -3    6    6    0.000030   -0.000000
   -5   -5   -3    7    6    0.000000    0.000004
   -5   -5   -3    1    7    0.000047    0.000000
   -5   -5   -3    2    7   -0.000038    0.000000
   -5   -5   -3    3    7   -0.000000    0.000000
   -5   -5   -3    4    7    0.000000   -0.000000
   -5   -5   -3    5    7   -0.000000    0.000000
   -5   -5   -3    6    7    0.000000   -0.000004
   -5   -5   -3    7    7   -0.000097    0.000000
   -5   -5   -2    1    1    0.001208   -0.000000
   -5   -5   -2    2    1   -0.000000   -0.000000
   -5   -5   -2    3    1   -0.000627    0.000557
   -5   -5   -2    4    1   -0.000240   -0.000002
   -5   -5   -2    5    1   -0.000240    0.000002
   -5   -5   -2    6    1   -0.000000   -0.000013
   -5   -5   -2    7    1   -0.000415    0.000000
   -5   -5   -2    1    2    0.000000    0.000000
   -5   -5   -2    2    2    0.000717    0.000000
   -5   -5   -2    3    2    0.000025    0.000000
   -5   -5   -2    4    2   -0.000003    0.000100
   -5   -5   -2    5    2   -0.000003   -0.000100
   -5   -5   -2    6    2   -0.000238   -0.000278
   -5   -5   -2    7    2   -0.000047    0.000000
   -5   -5   -2    1    3    0.000168    0.000000
   -5   -5   -2    2    3    0.000071    0.000000
   -5   -5   -2    3    3   -0.000212    0.000000
   -5   -5   -2    4    3    0.000032   -0.000022
   -5   -5   -2    5    3   -0.000030    0.000023
   -5   -5   -2    6    3    0.000000   -0.000000
   -5   -5   -2    7    3   -0.000000   -0.000000
   -5   -5   -2    1    4    0.000000   -0.000041
   -5   -5   -2    2    4   -0.000058   -0.000042
   -5   -5   -2    3    4    0.000032    0.000022
   -5   -5   -2    4    4   -0.000024   -0.000000
   -5   -5   -2    5    4   -0.000000    0.000065
   -5   -5   -2    6    4    0.000025    0.000019
   -5   -5   -2    7    4    0.000000   -0.000000
   -5   -5   -2    1    5    0.000000    0.000041
   -5   -5   -2    2    5   -0.000058    0.000042
   -5   -5   -2    3    5   -0.000030   -0.000023
   -5   -5   -2    4    5   -0.000000   -0.000065
   -5   -5   -2    5    5   -0.000024    0.000000
   -5   -5   -2    6    5    0.000026    0.000018
   -5   -5   -2    7    5   -0.000000   -0.000000
   -5   -5   -2    1    6    0.000000   -0.000041
   -5   -5   -2    2    6   -0.000000   -0.000058
   -5   -5   -2    3    6    0.000000   -0.000000
   -5   -5   -2    4    6    0.000025   -0.000019
   -5   -5   -2    5    6    0.000026   -0.000018
   -5   -5   -2    6    6   -0.000058    0.000000
   -5   -5   -2    7    6    0.000000   -0.000007
   -5   -5   -2    1    7   -0.000259   -0.000000
   -5   -5   -2    2    7   -0.000035   -0.000000
   -5   -5   -2    3    7    0.000000    0.000000
   -5   -5   -2    4    7    0.000000    0.000000
   -5   -5   -2    5    7   -0.000000    0.000000
   -5   -5   -2    6    7    0.000000    0.000007
   -5   -5   -2    7    7   -0.000305   -0.000000
   -5   -5   -1    1    1    0.000740    0.000000
   -5   -5   -1    2    1   -0.000001   -0.000000
   -5   -5   -1    3    1    0.000715   -0.000901
   -5   -5   -1    4    1    0.000350   -0.000003
   -5   -5   -1    5    1    0.000350    0.000003
   -5   -5   -1    6    1    0.000000   -0.000000
   -5   -5   -1    7    1   -0.000190    0.000000
   -5   -5   -1    1    2    0.000001    0.000000
   -5   -5   -1    2    2    0.000201   -0.000000
   -5   -5   -1    3    2   -0.000079   -0.000000
   -5   -5   -1    4    2   -0.000077   -0.000158
   -5   -5   -1    5    2   -0.000077    0.000158
   -5   -5   -1    6    2    0.000385    0.000344
   -5   -5   -1    7    2   -0.000270    0.000000
   -5   -5   -1    1    3    0.000180    0.000557
   -5   -5   -1    2    3    0.000025   -0.000000
   -5   -5   -1    3    3   -0.000090   -0.000000
   -5   -5   -1    4    3   -0.000083    0.000057
   -5   -5   -1    5    3    0.000079   -0.000061
   -5   -5   -1    6    3    0.000000    0.000000
   -5   -5   -1    7    3   -0.000000   -0.000000
   -5   -5   -1    1    4    0.000240   -0.000002
   -5   -5   -1    2    4    0.000003    0.000100
   -5   -5   -1    3    4   -0.000083   -0.000057
   -5   -5   -1    4    4    0.000035   -0.000000
   -5   -5   -1    5    4    0.000000   -0.000118
   -5   -5   -1    6    4   -0.000064   -0.000050
   -5   -5   -1    7    4    0.000000    0.000000
   -5   -5   -1    1    5    0.000240    0.000002
   -5   -5   -1    2    5    0.000003   -0.000100
   -5   -5   -1    3    5    0.000079    0.000061
   -5   -5   -1    4    5    0.000000    0.000118
   -5   -5   -1    5    5    0.000035    0.000000
   -5   -5   -1    6    5   -0.000067   -0.000046
   -5   -5   -1    7    5   -0.000000   -0.000000
   -5   -5   -1    1    6   -0.000000    0.000013
   -5   -5   -1    2    6    0.000238   -0.000068
   -5   -5   -1    3    6    0.000000    0.000000
   -5   -5   -1    4    6   -0.000064    0.000050
   -5   -5   -1    5    6   -0.000067    0.000046
   -5   -5   -1    6    6    0.000013    0.000000
   -5   -5   -1    7    6   -0.000000   -0.000003
   -5   -5   -1    1    7   -0.000415   -0.000000
   -5   -5   -1    2    7   -0.000047   -0.000000
   -5   -5   -1    3    7    0.000000   -0.000000
   -5   -5   -1    4    7    0.000000   -0.000000
   -5   -5   -1    5    7   -0.000000    0.000000
   -5   -5   -1    6    7   -0.000000    0.000003
   -5   -5   -1    7    7   -0.000301    0.000000
   -5   -5    0    1    1    0.000817   -0.000000
   -5   -5    0    2    1    0.000000    0.000000
   -5   -5    0    3    1   -0.000592    0.000901
   -5   -5    0    4    1   -0.000350    0.000003
   -5   -5    0    5    1   -0.000350   -0.000003
   -5   -5    0    6    1    0.000000   -0.000000
   -5   -5    0    7    1   -0.000190    0.000000
   -5   -5    0    1    2    0.000000   -0.000000
   -5   -5    0    2    2   -0.001000    0.000000
   -5   -5    0    3    2   -0.000079   -0.000000
   -5   -5    0    4    2    0.000077    0.000158
   -5   -5    0    5    2    0.000077   -0.000158
   -5   -5    0    6    2   -0.000385   -0.000215
   -5   -5    0    7    2   -0.000270    0.000000
   -5   -5    0    1    3   -0.000592   -0.000901
   -5   -5    0    2    3   -0.000079    0.000000
   -5   -5    0    3    3    0.000173   -0.000000
   -5   -5    0    4    3    0.000102   -0.000070
   -5   -5    0    5    3   -0.000098    0.000075
   -5   -5    0    6    3   -0.000000    0.000000
   -5   -5    0    7    3    0.000000    0.000000
   -5   -5    0    1    4   -0.000350   -0.000003
   -5   -5    0    2    4    0.000077   -0.000158
   -5   -5    0    3    4    0.000102    0.000070
   -5   -5    0    4    4   -0.000036   -0.000000
   -5   -5    0    5    4   -0.000000    0.000142
   -5   -5    0    6    4    0.000080    0.000061
   -5   -5    0    7    4    0.000000   -0.000000
   -5   -5    0    1    5   -0.000350    0.000003
   -5   -5    0    2    5    0.000077    0.000158
   -5   -5    0    3    5   -0.000098   -0.000075
   -5   -5    0    4    5   -0.000000   -0.000142
   -5   -5    0    5    5   -0.000036   -0.000000
   -5   -5    0    6    5    0.000083    0.000057
   -5   -5    0    7    5   -0.000000   -0.000000
   -5   -5    0    1    6    0.000000    0.000000
   -5   -5    0    2    6   -0.000385    0.000215
   -5   -5    0    3    6   -0.000000   -0.000000
   -5   -5    0    4    6    0.000080   -0.000061
   -5   -5    0    5    6    0.000083   -0.000057
   -5   -5    0    6    6    0.000114   -0.000000
   -5   -5    0    7    6   -0.000000    0.000010
   -5   -5    0    1    7   -0.000190   -0.000000
   -5   -5    0    2    7   -0.000270   -0.000000
   -5   -5    0    3    7    0.000000   -0.000000
   -5   -5    0    4    7    0.000000    0.000000
   -5   -5    0    5    7   -0.000000    0.000000
   -5   -5    0    6    7   -0.000000   -0.000010
   -5   -5    0    7    7   -0.000260   -0.000000
   -5   -5    1    1    1    0.000740   -0.000000
   -5   -5    1    2    1    0.000001   -0.000000
   -5   -5    1    3    1    0.000180   -0.000557
   -5   -5    1    4    1    0.000240    0.000002
   -5   -5    1    5    1    0.000240   -0.000002
   -5   -5    1    6    1   -0.000000   -0.000013
   -5   -5    1    7    1   -0.000415    0.000000
   -5   -5    1    1    2   -0.000001    0.000000
   -5   -5    1    2    2    0.000201    0.000000
   -5   -5    1    3    2    0.000025    0.000000
   -5   -5    1    4    2    0.000003   -0.000100
   -5   -5    1    5    2    0.000003    0.000100
   -5   -5    1    6    2    0.000238    0.000068
   -5   -5    1    7    2   -0.000047    0.000000
   -5   -5    1    1    3    0.000715    0.000901
   -5   -5    1    2    3   -0.000079    0.000000
   -5   -5    1    3    3   -0.000090    0.000000
   -5   -5    1    4    3   -0.000083    0.000057
   -5   -5    1    5    3    0.000079   -0.000061
   -5   -5    1    6    3    0.000000   -0.000000
   -5   -5    1    7    3    0.000000    0.000000
   -5   -5    1    1    4    0.000350    0.000003
   -5   -5    1    2    4   -0.000077    0.000158
   -5   -5    1    3    4   -0.000083   -0.000057
   -5   -5    1    4    4    0.000035    0.000000
   -5   -5    1    5    4    0.000000   -0.000118
   -5   -5    1    6    4   -0.000064   -0.000050
   -5   -5    1    7    4    0.000000    0.000000
   -5   -5    1    1    5    0.000350   -0.000003
   -5   -5    1    2    5   -0.000077   -0.000158
   -5   -5    1    3    5    0.000079    0.000061
   -5   -5    1    4    5    0.000000    0.000118
   -5   -5    1    5    5    0.000035   -0.000000
   -5   -5    1    6    5   -0.000067   -0.000046
   -5   -5    1    7    5   -0.000000   -0.000000
   -5   -5    1    1    6    0.000000    0.000000
   -5   -5    1    2    6    0.000385   -0.000344
   -5   -5    1    3    6    0.000000   -0.000000
   -5   -5    1    4    6   -0.000064    0.000050
   -5   -5    1    5    6   -0.000067    0.000046
   -5   -5    1    6    6    0.000013   -0.000000
   -5   -5    1    7    6   -0.000000   -0.000003
   -5   -5    1    1    7   -0.000190   -0.000000
   -5   -5    1    2    7   -0.000270   -0.000000
   -5   -5    1    3    7   -0.000000    0.000000
   -5   -5    1    4    7    0.000000   -0.000000
   -5   -5    1    5    7   -0.000000    0.000000
   -5   -5    1    6    7   -0.000000    0.000003
   -5   -5    1    7    7   -0.000301   -0.000000
   -5   -5    2    1    1    0.001208    0.000000
   -5   -5    2    2    1    0.000000   -0.000000
   -5   -5    2    3    1    0.000168   -0.000000
   -5   -5    2    4    1    0.000000    0.000041
   -5   -5    2    5    1    0.000000   -0.000041
   -5   -5    2    6    1    0.000000    0.000041
   -5   -5    2    7    1   -0.000259    0.000000
   -5   -5    2    1    2   -0.000000    0.000000
   -5   -5    2    2    2    0.000717   -0.000000
   -5   -5    2    3    2    0.000071   -0.000000
   -5   -5    2    4    2   -0.000058    0.000042
   -5   -5    2    5    2   -0.000058   -0.000042
   -5   -5    2    6    2   -0.000000    0.000058
   -5   -5    2    7    2   -0.000035    0.000000
   -5   -5    2    1    3   -0.000627   -0.000557
   -5   -5    2    2    3    0.000025   -0.000000
   -5   -5    2    3    3   -0.000212   -0.000000
   -5   -5    2    4    3    0.000032   -0.000022
   -5   -5    2    5    3   -0.000030    0.000023
   -5   -5    2    6    3    0.000000    0.000000
   -5   -5    2    7    3    0.000000   -0.000000
   -5   -5    2    1    4   -0.000240    0.000002
   -5   -5    2    2    4   -0.000003   -0.000100
   -5   -5    2    3    4    0.000032    0.000022
   -5   -5    2    4    4   -0.000024    0.000000
   -5   -5    2    5    4   -0.000000    0.000065
   -5   -5    2    6    4    0.000025    0.000019
   -5   -5    2    7    4    0.000000   -0.000000
   -5   -5    2    1    5   -0.000240   -0.000002
   -5   -5    2    2    5   -0.000003    0.000100
   -5   -5    2    3    5   -0.000030   -0.000023
   -5   -5    2    4    5   -0.000000   -0.000065
   -5   -5    2    5    5   -0.000024   -0.000000
   -5   -5    2    6    5    0.000026    0.000018
   -5   -5    2    7    5   -0.000000   -0.000000
   -5   -5    2    1    6   -0.000000    0.000013
   -5   -5    2    2    6   -0.000238    0.000278
   -5   -5    2    3    6    0.000000    0.000000
   -5   -5    2    4    6    0.000025   -0.000019
   -5   -5    2    5    6    0.000026   -0.000018
   -5   -5    2    6    6   -0.000058   -0.000000
   -5   -5    2    7    6    0.000000   -0.000007
   -5   -5    2    1    7   -0.000415   -0.000000
   -5   -5    2    2    7   -0.000047   -0.000000
   -5   -5    2    3    7   -0.000000    0.000000
   -5   -5    2    4    7    0.000000    0.000000
   -5   -5    2    5    7   -0.000000    0.000000
   -5   -5    2    6    7    0.000000    0.000007
   -5   -5    2    7    7   -0.000305    0.000000
   -5   -5    3    1    1   -0.000127    0.000000
   -5   -5    3    2    1   -0.000001   -0.000000
   -5   -5    3    3    1   -0.000422    0.000557
   -5   -5    3    4    1   -0.000043   -0.000013
   -5   -5    3    5    1   -0.000043    0.000013
   -5   -5    3    6    1   -0.000000   -0.000025
   -5   -5    3    7    1    0.000047   -0.000000
   -5   -5    3    1    2    0.000001    0.000000
   -5   -5    3    2    2   -0.000299   -0.000000
   -5   -5    3    3    2    0.000045    0.000000
   -5   -5    3    4    2   -0.000003   -0.000014
   -5   -5    3    5    2   -0.000003    0.000014
   -5   -5    3    6    2   -0.000238   -0.000184
   -5   -5    3    7    2   -0.000038   -0.000000
   -5   -5    3    1    3    0.000168    0.000000
   -5   -5    3    2    3    0.000071    0.000000
   -5   -5    3    3    3   -0.000059   -0.000000
   -5   -5    3    4    3    0.000032   -0.000022
   -5   -5    3    5    3   -0.000030    0.000023
   -5   -5    3    6    3   -0.000000    0.000000
   -5   -5    3    7    3   -0.000000   -0.000000
   -5   -5    3    1    4   -0.000000    0.000041
   -5   -5    3    2    4    0.000058    0.000042
   -5   -5    3    3    4    0.000032    0.000022
   -5   -5    3    4    4    0.000016   -0.000000
   -5   -5    3    5    4    0.000000   -0.000018
   -5   -5    3    6    4    0.000025    0.000019
   -5   -5    3    7    4    0.000000    0.000000
   -5   -5    3    1    5   -0.000000   -0.000041
   -5   -5    3    2    5    0.000058   -0.000042
   -5   -5    3    3    5   -0.000030   -0.000023
   -5   -5    3    4    5    0.000000    0.000018
   -5   -5    3    5    5    0.000016    0.000000
   -5   -5    3    6    5    0.000026    0.000018
   -5   -5    3    7    5   -0.000000   -0.000000
   -5   -5    3    1    6    0.000000   -0.000041
   -5   -5    3    2    6   -0.000000   -0.000058
   -5   -5    3    3    6   -0.000000    0.000000
   -5   -5    3    4    6    0.000025   -0.000019
   -5   -5    3    5    6    0.000026   -0.000018
   -5   -5    3    6    6    0.000030    0.000000
   -5   -5    3    7    6    0.000000    0.000004
   -5   -5    3    1    7   -0.000259   -0.000000
   -5   -5    3    2    7   -0.000035   -0.000000
   -5   -5    3    3    7    0.000000    0.000000
   -5   -5    3    4    7    0.000000   -0.000000
   -5   -5    3    5    7   -0.000000    0.000000
   -5   -5    3    6    7    0.000000   -0.000004
   -5   -5    3    7    7   -0.000097   -0.000000
   -5   -5    4    1    1   -0.000384   -0.000000
   -5   -5    4    2    1    0.000000    0.000000
   -5   -5    4    3    1    0.000669   -0.000901
   -5   -5    4    4    1    0.000071   -0.000090
   -5   -5    4    5    1    0.000071    0.000090
   -5   -5    4    6    1    0.000000    0.000002
   -5   -5    4    7    1    0.000199   -0.000000
   -5   -5    4    1    2   -0.000000   -0.000000
   -5   -5    4    2    2   -0.000177    0.000000
   -5   -5    4    3    2   -0.000054   -0.000000
   -5   -5    4    4    2    0.000051   -0.000030
   -5   -5    4    5    2    0.000051    0.000030
   -5   -5    4    6    2    0.000385    0.000273
   -5   -5    4    7    2    0.000008   -0.000000
   -5   -5    4    1    3    0.000385    0.000557
   -5   -5    4    2    3    0.000045   -0.000000
   -5   -5    4    3    3    0.000067    0.000000
   -5   -5    4    4    3   -0.000083    0.000057
   -5   -5    4    5    3    0.000079   -0.000061
   -5   -5    4    6    3   -0.000000   -0.000000
   -5   -5    4    7    3   -0.000000    0.000000
   -5   -5    4    1    4    0.000043   -0.000013
   -5   -5    4    2    4    0.000002   -0.000015
   -5   -5    4    3    4   -0.000083   -0.000057
   -5   -5    4    4    4   -0.000029    0.000000
   -5   -5    4    5    4   -0.000000   -0.000023
   -5   -5    4    6    4   -0.000064   -0.000050
   -5   -5    4    7    4   -0.000000    0.000000
   -5   -5    4    1    5    0.000043    0.000013
   -5   -5    4    2    5    0.000002    0.000015
   -5   -5    4    3    5    0.000079    0.000061
   -5   -5    4    4    5   -0.000000    0.000023
   -5   -5    4    5    5   -0.000029   -0.000000
   -5   -5    4    6    5   -0.000067   -0.000046
   -5   -5    4    7    5   -0.000000   -0.000000
   -5   -5    4    1    6   -0.000000    0.000025
   -5   -5    4    2    6    0.000238   -0.000162
   -5   -5    4    3    6   -0.000000   -0.000000
   -5   -5    4    4    6   -0.000064    0.000050
   -5   -5    4    5    6   -0.000067    0.000046
   -5   -5    4    6    6    0.000010    0.000000
   -5   -5    4    7    6   -0.000000   -0.000000
   -5   -5    4    1    7    0.000048    0.000000
   -5   -5    4    2    7   -0.000039    0.000000
   -5   -5    4    3    7    0.000000   -0.000000
   -5   -5    4    4    7   -0.000000   -0.000000
   -5   -5    4    5    7   -0.000000    0.000000
   -5   -5    4    6    7   -0.000000    0.000000
   -5   -5    4    7    7    0.000128   -0.000000
   -5   -5    5    1    1   -0.000777    0.000000
   -5   -5    5    2    1   -0.000000    0.000000
   -5   -5    5    3    1   -0.000638    0.000901
   -5   -5    5    4    1   -0.000071    0.000090
   -5   -5    5    5    1   -0.000071   -0.000090
   -5   -5    5    6    1    0.000000    0.000002
   -5   -5    5    7    1    0.000199   -0.000000
   -5   -5    5    1    2   -0.000000   -0.000000
   -5   -5    5    2    2    0.000321    0.000000
   -5   -5    5    3    2   -0.000054   -0.000000
   -5   -5    5    4    2   -0.000051    0.000030
   -5   -5    5    5    2   -0.000051   -0.000030
   -5   -5    5    6    2   -0.000385   -0.000286
   -5   -5    5    7    2    0.000008   -0.000000
   -5   -5    5    1    3   -0.000638   -0.000901
   -5   -5    5    2    3   -0.000054    0.000000
   -5   -5    5    3    3    0.000188    0.000000
   -5   -5    5    4    3    0.000102   -0.000070
   -5   -5    5    5    3   -0.000098    0.000075
   -5   -5    5    6    3    0.000000    0.000000
   -5   -5    5    7    3   -0.000000    0.000000
   -5   -5    5    1    4   -0.000071   -0.000090
   -5   -5    5    2    4   -0.000051   -0.000030
   -5   -5    5    3    4    0.000102    0.000070
   -5   -5    5    4    4    0.000041    0.000000
   -5   -5    5    5    4   -0.000000    0.000046
   -5   -5    5    6    4    0.000080    0.000061
   -5   -5    5    7    4    0.000000    0.000000
   -5   -5    5    1    5   -0.000071    0.000090
   -5   -5    5    2    5   -0.000051    0.000030
   -5   -5    5    3    5   -0.000098   -0.000075
   -5   -5    5    4    5   -0.000000   -0.000046
   -5   -5    5    5    5    0.000041   -0.000000
   -5   -5    5    6    5    0.000083    0.000057
   -5   -5    5    7    5    0.000000   -0.000000
   -5   -5    5    1    6    0.000000   -0.000002
   -5   -5    5    2    6   -0.000385    0.000286
   -5   -5    5    3    6    0.000000   -0.000000
   -5   -5    5    4    6    0.000080   -0.000061
   -5   -5    5    5    6    0.000083   -0.000057
   -5   -5    5    6    6   -0.000013   -0.000000
   -5   -5    5    7    6   -0.000000   -0.000006
   -5   -5    5    1    7    0.000199    0.000000
   -5   -5    5    2    7    0.000008    0.000000
   -5   -5    5    3    7   -0.000000   -0.000000
   -5   -5    5    4    7    0.000000   -0.000000
   -5   -5    5    5    7    0.000000    0.000000
   -5   -5    5    6    7   -0.000000    0.000006
   -5   -5    5    7    7    0.000216   -0.000000
   -5   -4   -5    1    1    0.000251   -0.000000
   -5   -4   -5    2    1   -0.000000    0.000447
   -5   -4   -5    3    1    0.000034    0.000022
   -5   -4   -5    4    1   -0.000155    0.000001
   -5   -4   -5    5    1    0.000082    0.000167
   -5   -4   -5    6    1    0.000509   -0.000728
   -5   -4   -5    7    1   -0.000042    0.000006
   -5   -4   -5    1    2   -0.000000   -0.000447
   -5   -4   -5    2    2   -0.000068    0.000000
   -5   -4   -5    3    2    0.000536    0.000351
   -5   -4   -5    4    2    0.000061    0.000081
   -5   -4   -5    5    2   -0.000004    0.000042
   -5   -4   -5    6    2   -0.000007   -0.000007
   -5   -4   -5    7    2    0.000003   -0.000059
   -5   -4   -5    1    3    0.000016    0.000000
   -5   -4   -5    2    3    0.000529   -0.000344
   -5   -4   -5    3    3   -0.000118   -0.000000
   -5   -4   -5    4    3   -0.000098    0.000075
   -5   -4   -5    5    3   -0.000102    0.000070
   -5   -4   -5    6    3    0.000008    0.000000
   -5   -4   -5    7    3    0.000000    0.000000
   -5   -4   -5    1    4   -0.000071    0.000090
   -5   -4   -5    2    4    0.000051   -0.000030
   -5   -4   -5    3    4   -0.000098   -0.000075
   -5   -4   -5    4    4    0.000009    0.000000
   -5   -4   -5    5    4    0.000000    0.000003
   -5   -4   -5    6    4   -0.000083   -0.000057
   -5   -4   -5    7    4   -0.000000   -0.000000
   -5   -4   -5    1    5    0.000071    0.000090
   -5   -4   -5    2    5   -0.000051   -0.000030
   -5   -4   -5    3    5   -0.000102   -0.000070
   -5   -4   -5    4    5    0.000000   -0.000003
   -5   -4   -5    5    5    0.000019    0.000000
   -5   -4   -5    6    5    0.000080    0.000061
   -5   -4   -5    7    5    0.000000   -0.000000
   -5   -4   -5    1    6    0.000531    0.000734
   -5   -4   -5    2    6   -0.000000    0.000006
   -5   -4   -5    3    6    0.000008   -0.000000
   -5   -4   -5    4    6   -0.000083    0.000057
   -5   -4   -5    5    6    0.000080   -0.000061
   -5   -4   -5    6    6   -0.000012   -0.000000
   -5   -4   -5    7    6    0.000000   -0.000002
   -5   -4   -5    1    7   -0.000199   -0.000000
   -5   -4   -5    2    7    0.000008   -0.000000
   -5   -4   -5    3    7    0.000000   -0.000000
   -5   -4   -5    4    7    0.000000   -0.000000
   -5   -4   -5    5    7   -0.000000   -0.000000
   -5   -4   -5    6    7    0.000000    0.000002
   -5   -4   -5    7    7   -0.000101   -0.000000
   -5   -4   -4    1    1    0.000087    0.000000
   -5   -4   -4    2    1   -0.000000    0.000128
   -5   -4   -4    3    1   -0.000005    0.000012
   -5   -4   -4    4    1    0.000034   -0.000095
   -5   -4   -4    5    1    0.000042   -0.000060
   -5   -4   -4    6    1   -0.000221    0.000444
   -5   -4   -4    7    1    0.000021   -0.000012
   -5   -4   -4    1    2    0.000000   -0.000127
   -5   -4   -4    2    2    0.000180    0.000001
   -5   -4   -4    3    2   -0.000291   -0.000163
   -5   -4   -4    4    2    0.000030   -0.000033
   -5   -4   -4    5    2   -0.000035    0.000033
   -5   -4   -4    6    2    0.000026    0.000024
   -5   -4   -4    7    2   -0.000029   -0.000005
   -5   -4   -4    1    3    0.000016   -0.000000
   -5   -4   -4    2    3   -0.000420    0.000344
   -5   -4   -4    3    3   -0.000032   -0.000000
   -5   -4   -4    4    3    0.000079   -0.000049
   -5   -4   -4    5    3    0.000066   -0.000057
   -5   -4   -4    6    3   -0.000005    0.000000
   -5   -4   -4    7    3   -0.000000    0.000001
   -5   -4   -4    1    4    0.000071   -0.000090
   -5   -4   -4    2    4   -0.000051    0.000030
   -5   -4   -4    3    4    0.000079    0.000049
   -5   -4   -4    4    4   -0.000020    0.000000
   -5   -4   -4    5    4   -0.000000   -0.000008
   -5   -4   -4    6    4    0.000067    0.000039
   -5   -4   -4    7    4    0.000014    0.000000
   -5   -4   -4    1    5   -0.000071   -0.000090
   -5   -4   -4    2    5    0.000051    0.000030
   -5   -4   -4    3    5    0.000066    0.000057
   -5   -4   -4    4    5    0.000000    0.000008
   -5   -4   -4    5    5   -0.000020    0.000000
   -5   -4   -4    6    5   -0.000075   -0.000050
   -5   -4   -4    7    5    0.000000   -0.000017
   -5   -4   -4    1    6   -0.000531   -0.000730
   -5   -4   -4    2    6   -0.000000    0.000006
   -5   -4   -4    3    6   -0.000005   -0.000000
   -5   -4   -4    4    6    0.000067   -0.000039
   -5   -4   -4    5    6   -0.000075    0.000050
   -5   -4   -4    6    6   -0.000004   -0.000000
   -5   -4   -4    7    6   -0.000000   -0.000001
   -5   -4   -4    1    7   -0.000199   -0.000000
   -5   -4   -4    2    7    0.000008   -0.000000
   -5   -4   -4    3    7    0.000000   -0.000001
   -5   -4   -4    4    7    0.000014    0.000000
   -5   -4   -4    5    7   -0.000000    0.000018
   -5   -4   -4    6    7    0.000000    0.000001
   -5   -4   -4    7    7   -0.000058   -0.000000
   -5   -4   -3    1    1   -0.000121    0.000000
   -5   -4   -3    2    1   -0.000000   -0.000406
   -5   -4   -3    3    1   -0.000102   -0.000064
   -5   -4   -3    4    1    0.000138    0.000070
   -5   -4   -3    5    1   -0.000157   -0.000044
   -5   -4   -3    6    1   -0.000220    0.000013
   -5   -4   -3    7    1    0.000002   -0.000012
   -5   -4   -3    1    2    0.000000    0.000407
   -5   -4   -3    2    2   -0.000020   -0.000001
   -5   -4   -3    3    2    0.000072   -0.000160
   -5   -4   -3    4    2   -0.000010   -0.000065
   -5   -4   -3    5    2   -0.000035   -0.000068
   -5   -4   -3    6    2    0.000012   -0.000051
   -5   -4   -3    7    2    0.000040    0.000065
   -5   -4   -3    1    3   -0.000019   -0.000000
   -5   -4   -3    2    3    0.000248   -0.000213
   -5   -4   -3    3    3    0.000081    0.000000
   -5   -4   -3    4    3   -0.000030    0.000001
   -5   -4   -3    5    3   -0.000051    0.000022
   -5   -4   -3    6    3   -0.000053    0.000000
   -5   -4   -3    7    3   -0.000000   -0.000002
   -5   -4   -3    1    4   -0.000043   -0.000013
   -5   -4   -3    2    4    0.000002    0.000015
   -5   -4   -3    3    4   -0.000030   -0.000001
   -5   -4   -3    4    4    0.000021   -0.000000
   -5   -4   -3    5    4    0.000000    0.000008
   -5   -4   -3    6    4   -0.000026   -0.000000
   -5   -4   -3    7    4    0.000027   -0.000000
   -5   -4   -3    1    5    0.000043   -0.000013
   -5   -4   -3    2    5   -0.000002    0.000015
   -5   -4   -3    3    5   -0.000051   -0.000022
   -5   -4   -3    4    5   -0.000000   -0.000008
   -5   -4   -3    5    5    0.000013   -0.000000
   -5   -4   -3    6    5    0.000025    0.000019
   -5   -4   -3    7    5   -0.000000    0.000009
   -5   -4   -3    1    6    0.000328    0.000427
   -5   -4   -3    2    6    0.000000    0.000011
   -5   -4   -3    3    6   -0.000053    0.000000
   -5   -4   -3    4    6   -0.000026    0.000000
   -5   -4   -3    5    6    0.000025   -0.000019
   -5   -4   -3    6    6    0.000012    0.000000
   -5   -4   -3    7    6   -0.000000    0.000002
   -5   -4   -3    1    7   -0.000047    0.000000
   -5   -4   -3    2    7   -0.000039    0.000000
   -5   -4   -3    3    7    0.000000    0.000002
   -5   -4   -3    4    7    0.000027   -0.000000
   -5   -4   -3    5    7    0.000000   -0.000009
   -5   -4   -3    6    7    0.000000   -0.000002
   -5   -4   -3    7    7    0.000038    0.000000
   -5   -4   -2    1    1    0.000021   -0.000001
   -5   -4   -2    2    1    0.000000   -0.000071
   -5   -4   -2    3    1    0.000260    0.000019
   -5   -4   -2    4    1   -0.000165    0.000066
   -5   -4   -2    5    1    0.000295    0.000087
   -5   -4   -2    6    1    0.000581   -0.000473
   -5   -4   -2    7    1    0.000096    0.000034
   -5   -4   -2    1    2   -0.000000    0.000069
   -5   -4   -2    2    2   -0.000261    0.000000
   -5   -4   -2    3    2    0.000322    0.000448
   -5   -4   -2    4    2   -0.000035    0.000121
   -5   -4   -2    5    2   -0.000032    0.000096
   -5   -4   -2    6    2   -0.000138    0.000085
   -5   -4   -2    7    2   -0.000027    0.000028
   -5   -4   -2    1    3    0.000168    0.000000
   -5   -4   -2    2    3   -0.000071   -0.000000
   -5   -4   -2    3    3    0.000074    0.000000
   -5   -4   -2    4    3   -0.000030    0.000068
   -5   -4   -2    5    3   -0.000004    0.000022
   -5   -4   -2    6    3    0.000052   -0.000000
   -5   -4   -2    7    3    0.000000    0.000009
   -5   -4   -2    1    4    0.000000    0.000041
   -5   -4   -2    2    4    0.000058   -0.000042
   -5   -4   -2    3    4   -0.000030   -0.000068
   -5   -4   -2    4    4   -0.000011   -0.000000
   -5   -4   -2    5    4   -0.000000   -0.000001
   -5   -4   -2    6    4   -0.000026   -0.000043
   -5   -4   -2    7    4    0.000010    0.000000
   -5   -4   -2    1    5   -0.000000    0.000041
   -5   -4   -2    2    5   -0.000058   -0.000042
   -5   -4   -2    3    5   -0.000004   -0.000022
   -5   -4   -2    4    5    0.000000    0.000001
   -5   -4   -2    5    5   -0.000004    0.000000
   -5   -4   -2    6    5    0.000045    0.000019
   -5   -4   -2    7    5   -0.000000    0.000000
   -5   -4   -2    1    6   -0.000000    0.000041
   -5   -4   -2    2    6   -0.000000   -0.000058
   -5   -4   -2    3    6    0.000052   -0.000000
   -5   -4   -2    4    6   -0.000026    0.000043
   -5   -4   -2    5    6    0.000045   -0.000019
   -5   -4   -2    6    6    0.000018    0.000000
   -5   -4   -2    7    6   -0.000000    0.000000
   -5   -4   -2    1    7    0.000259    0.000000
   -5   -4   -2    2    7   -0.000035    0.000000
   -5   -4   -2    3    7   -0.000000   -0.000009
   -5   -4   -2    4    7    0.000010   -0.000000
   -5   -4   -2    5    7    0.000000   -0.000000
   -5   -4   -2    6    7    0.000000   -0.000000
   -5   -4   -2    7    7    0.000137    0.000000
   -5   -4   -1    1    1   -0.000125    0.000000
   -5   -4   -1    2    1    0.000000    0.000119
   -5   -4   -1    3    1   -0.000046   -0.000026
   -5   -4   -1    4    1    0.000254   -0.000142
   -5   -4   -1    5    1   -0.000319   -0.000124
   -5   -4   -1    6    1   -0.000663    0.000744
   -5   -4   -1    7    1    0.000242   -0.000022
   -5   -4   -1    1    2   -0.000000   -0.000117
   -5   -4   -1    2    2   -0.000286    0.000000
   -5   -4   -1    3    2   -0.000547   -0.000465
   -5   -4   -1    4    2    0.000198   -0.000160
   -5   -4   -1    5    2    0.000062   -0.000132
   -5   -4   -1    6    2    0.000105   -0.000052
   -5   -4   -1    7    2   -0.000008   -0.000041
   -5   -4   -1    1    3   -0.000223   -0.000000
   -5   -4   -1    2    3   -0.000318    0.000213
   -5   -4   -1    3    3   -0.000000   -0.000000
   -5   -4   -1    4    3    0.000079   -0.000097
   -5   -4   -1    5    3    0.000129   -0.000057
   -5   -4   -1    6    3    0.000033   -0.000000
   -5   -4   -1    7    3    0.000000    0.000008
   -5   -4   -1    1    4    0.000240    0.000002
   -5   -4   -1    2    4   -0.000003    0.000100
   -5   -4   -1    3    4    0.000079    0.000097
   -5   -4   -1    4    4   -0.000011    0.000000
   -5   -4   -1    5    4    0.000000   -0.000002
   -5   -4   -1    6    4    0.000067    0.000071
   -5   -4   -1    7    4   -0.000009   -0.000000
   -5   -4   -1    1    5   -0.000240    0.000002
   -5   -4   -1    2    5    0.000003    0.000100
   -5   -4   -1    3    5    0.000129    0.000057
   -5   -4   -1    4    5   -0.000000    0.000002
   -5   -4   -1    5    5    0.000017    0.000000
   -5   -4   -1    6    5   -0.000052   -0.000050
   -5   -4   -1    7    5   -0.000000    0.000005
   -5   -4   -1    1    6   -0.000328   -0.000465
   -5   -4   -1    2    6    0.000000    0.000105
   -5   -4   -1    3    6    0.000033   -0.000000
   -5   -4   -1    4    6    0.000067   -0.000071
   -5   -4   -1    5    6   -0.000052    0.000050
   -5   -4   -1    6    6   -0.000012   -0.000000
   -5   -4   -1    7    6    0.000000   -0.000002
   -5   -4   -1    1    7    0.000415    0.000000
   -5   -4   -1    2    7   -0.000047    0.000000
   -5   -4   -1    3    7   -0.000000   -0.000008
   -5   -4   -1    4    7   -0.000009   -0.000000
   -5   -4   -1    5    7    0.000000   -0.000005
   -5   -4   -1    6    7   -0.000000    0.000002
   -5   -4   -1    7    7    0.000180    0.000000
   -5   -4    0    1    1   -0.000772    0.000000
   -5   -4    0    2    1   -0.000000    0.000094
   -5   -4    0    3    1   -0.000046   -0.000027
   -5   -4    0    4    1   -0.000254    0.000142
   -5   -4    0    5    1    0.000319    0.000124
   -5   -4    0    6    1    0.000398   -0.000719
   -5   -4    0    7    1    0.000242   -0.000022
   -5   -4    0    1    2   -0.000000   -0.000094
   -5   -4    0    2    2    0.000452   -0.000000
   -5   -4    0    3    2    0.000402    0.000223
   -5   -4    0    4    2   -0.000198    0.000160
   -5   -4    0    5    2   -0.000062    0.000132
   -5   -4    0    6    2    0.000105   -0.000052
   -5   -4    0    7    2   -0.000008   -0.000041
   -5   -4    0    1    3    0.000061    0.000000
   -5   -4    0    2    3    0.000554   -0.000344
   -5   -4    0    3    3   -0.000046    0.000000
   -5   -4    0    4    3   -0.000098    0.000075
   -5   -4    0    5    3   -0.000102    0.000070
   -5   -4    0    6    3   -0.000104    0.000000
   -5   -4    0    7    3   -0.000000   -0.000009
   -5   -4    0    1    4   -0.000350    0.000003
   -5   -4    0    2    4   -0.000077   -0.000158
   -5   -4    0    3    4   -0.000098   -0.000075
   -5   -4    0    4    4    0.000033   -0.000000
   -5   -4    0    5    4    0.000000    0.000003
   -5   -4    0    6    4   -0.000083   -0.000057
   -5   -4    0    7    4   -0.000000   -0.000000
   -5   -4    0    1    5    0.000350    0.000003
   -5   -4    0    2    5    0.000077   -0.000158
   -5   -4    0    3    5   -0.000102   -0.000070
   -5   -4    0    4    5    0.000000   -0.000003
   -5   -4    0    5    5   -0.000032    0.000000
   -5   -4    0    6    5    0.000080    0.000061
   -5   -4    0    7    5    0.000000    0.000000
   -5   -4    0    1    6    0.000531    0.000731
   -5   -4    0    2    6   -0.000000   -0.000064
   -5   -4    0    3    6   -0.000104   -0.000000
   -5   -4    0    4    6   -0.000083    0.000057
   -5   -4    0    5    6    0.000080   -0.000061
   -5   -4    0    6    6    0.000022    0.000000
   -5   -4    0    7    6    0.000000    0.000000
   -5   -4    0    1    7    0.000190    0.000000
   -5   -4    0    2    7   -0.000270    0.000000
   -5   -4    0    3    7   -0.000000    0.000009
   -5   -4    0    4    7    0.000000   -0.000000
   -5   -4    0    5    7   -0.000000    0.000000
   -5   -4    0    6    7    0.000000   -0.000000
   -5   -4    0    7    7    0.000134    0.000000
   -5   -4    1    1    1   -0.000125   -0.000000
   -5   -4    1    2    1   -0.000000    0.000118
   -5   -4    1    3    1    0.000259    0.000019
   -5   -4    1    4    1    0.000165   -0.000066
   -5   -4    1    5    1   -0.000295   -0.000087
   -5   -4    1    6    1   -0.000075    0.000432
   -5   -4    1    7    1    0.000096    0.000034
   -5   -4    1    1    2    0.000000   -0.000119
   -5   -4    1    2    2   -0.000286   -0.000000
   -5   -4    1    3    2   -0.000265    0.000023
   -5   -4    1    4    2    0.000035   -0.000121
   -5   -4    1    5    2    0.000032   -0.000096
   -5   -4    1    6    2   -0.000138    0.000085
   -5   -4    1    7    2   -0.000027    0.000028
   -5   -4    1    1    3    0.000061   -0.000000
   -5   -4    1    2    3   -0.000395    0.000344
   -5   -4    1    3    3   -0.000000    0.000000
   -5   -4    1    4    3    0.000079   -0.000025
   -5   -4    1    5    3    0.000036   -0.000057
   -5   -4    1    6    3    0.000033    0.000000
   -5   -4    1    7    3   -0.000000    0.000008
   -5   -4    1    1    4    0.000350   -0.000003
   -5   -4    1    2    4    0.000077    0.000158
   -5   -4    1    3    4    0.000079    0.000025
   -5   -4    1    4    4   -0.000011   -0.000000
   -5   -4    1    5    4   -0.000000   -0.000002
   -5   -4    1    6    4    0.000067    0.000021
   -5   -4    1    7    4    0.000009    0.000000
   -5   -4    1    1    5   -0.000350   -0.000003
   -5   -4    1    2    5   -0.000077    0.000158
   -5   -4    1    3    5    0.000036    0.000057
   -5   -4    1    4    5    0.000000    0.000002
   -5   -4    1    5    5    0.000017   -0.000000
   -5   -4    1    6    5   -0.000077   -0.000050
   -5   -4    1    7    5   -0.000000   -0.000005
   -5   -4    1    1    6   -0.000531   -0.000732
   -5   -4    1    2    6   -0.000000   -0.000064
   -5   -4    1    3    6    0.000033    0.000000
   -5   -4    1    4    6    0.000067   -0.000021
   -5   -4    1    5    6   -0.000076    0.000050
   -5   -4    1    6    6   -0.000012    0.000000
   -5   -4    1    7    6   -0.000000   -0.000002
   -5   -4    1    1    7    0.000190    0.000000
   -5   -4    1    2    7   -0.000270    0.000000
   -5   -4    1    3    7    0.000000   -0.000008
   -5   -4    1    4    7    0.000009   -0.000000
   -5   -4    1    5    7    0.000000    0.000005
   -5   -4    1    6    7    0.000000    0.000002
   -5   -4    1    7    7    0.000180   -0.000000
   -5   -4    2    1    1    0.000021    0.000001
   -5   -4    2    2    1   -0.000000   -0.000069
   -5   -4    2    3    1   -0.000102   -0.000064
   -5   -4    2    4    1   -0.000138   -0.000070
   -5   -4    2    5    1    0.000157    0.000044
   -5   -4    2    6    1   -0.000220    0.000013
   -5   -4    2    7    1    0.000001   -0.000012
   -5   -4    2    1    2    0.000000    0.000071
   -5   -4    2    2    2   -0.000261   -0.000000
   -5   -4    2    3    2    0.000072   -0.000160
   -5   -4    2    4    2    0.000010    0.000065
   -5   -4    2    5    2    0.000035    0.000068
   -5   -4    2    6    2    0.000012   -0.000051
   -5   -4    2    7    2    0.000040    0.000065
   -5   -4    2    1    3   -0.000224   -0.000000
   -5   -4    2    2    3    0.000268   -0.000213
   -5   -4    2    3    3    0.000074   -0.000000
   -5   -4    2    4    3   -0.000030   -0.000022
   -5   -4    2    5    3   -0.000059    0.000022
   -5   -4    2    6    3    0.000052    0.000000
   -5   -4    2    7    3   -0.000000    0.000009
   -5   -4    2    1    4   -0.000240   -0.000002
   -5   -4    2    2    4    0.000003   -0.000100
   -5   -4    2    3    4   -0.000030    0.000022
   -5   -4    2    4    4   -0.000011    0.000000
   -5   -4    2    5    4    0.000000   -0.000001
   -5   -4    2    6    4   -0.000026    0.000008
   -5   -4    2    7    4   -0.000010    0.000000
   -5   -4    2    1    5    0.000240   -0.000002
   -5   -4    2    2    5   -0.000003   -0.000100
   -5   -4    2    3    5   -0.000059   -0.000022
   -5   -4    2    4    5   -0.000000    0.000001
   -5   -4    2    5    5   -0.000004   -0.000000
   -5   -4    2    6    5    0.000004    0.000019
   -5   -4    2    7    5   -0.000000   -0.000000
   -5   -4    2    1    6    0.000328    0.000439
   -5   -4    2    2    6    0.000000    0.000105
   -5   -4    2    3    6    0.000052    0.000000
   -5   -4    2    4    6   -0.000026   -0.000008
   -5   -4    2    5    6    0.000004   -0.000019
   -5   -4    2    6    6    0.000018   -0.000000
   -5   -4    2    7    6    0.000000    0.000000
   -5   -4    2    1    7    0.000415    0.000000
   -5   -4    2    2    7   -0.000047    0.000000
   -5   -4    2    3    7    0.000000   -0.000009
   -5   -4    2    4    7   -0.000010    0.000000
   -5   -4    2    5    7    0.000000    0.000000
   -5   -4    2    6    7   -0.000000   -0.000000
   -5   -4    2    7    7    0.000137   -0.000000
   -5   -4    3    1    1   -0.000121   -0.000000
   -5   -4    3    2    1    0.000000   -0.000407
   -5   -4    3    3    1   -0.000005    0.000012
   -5   -4    3    4    1   -0.000034    0.000096
   -5   -4    3    5    1   -0.000042    0.000060
   -5   -4    3    6    1    0.000435   -0.000461
   -5   -4    3    7    1    0.000021   -0.000012
   -5   -4    3    1    2   -0.000000    0.000406
   -5   -4    3    2    2   -0.000020    0.000001
   -5   -4    3    3    2    0.000295    0.000262
   -5   -4    3    4    2   -0.000030    0.000032
   -5   -4    3    5    2    0.000035   -0.000034
   -5   -4    3    6    2    0.000026    0.000024
   -5   -4    3    7    2   -0.000029   -0.000005
   -5   -4    3    1    3    0.000168    0.000000
   -5   -4    3    2    3   -0.000071   -0.000000
   -5   -4    3    3    3    0.000081   -0.000000
   -5   -4    3    4    3   -0.000030    0.000046
   -5   -4    3    5    3   -0.000012    0.000022
   -5   -4    3    6    3   -0.000053   -0.000000
   -5   -4    3    7    3    0.000000   -0.000002
   -5   -4    3    1    4   -0.000000   -0.000041
   -5   -4    3    2    4   -0.000058    0.000042
   -5   -4    3    3    4   -0.000030   -0.000046
   -5   -4    3    4    4    0.000021    0.000000
   -5   -4    3    5    4   -0.000000    0.000008
   -5   -4    3    6    4   -0.000026   -0.000035
   -5   -4    3    7    4   -0.000027   -0.000000
   -5   -4    3    1    5    0.000000   -0.000041
   -5   -4    3    2    5    0.000058    0.000042
   -5   -4    3    3    5   -0.000012   -0.000022
   -5   -4    3    4    5    0.000000   -0.000008
   -5   -4    3    5    5    0.000013    0.000000
   -5   -4    3    6    5    0.000024    0.000019
   -5   -4    3    7    5   -0.000000   -0.000009
   -5   -4    3    1    6   -0.000000    0.000041
   -5   -4    3    2    6   -0.000000   -0.000058
   -5   -4    3    3    6   -0.000053   -0.000000
   -5   -4    3    4    6   -0.000026    0.000035
   -5   -4    3    5    6    0.000024   -0.000019
   -5   -4    3    6    6    0.000012   -0.000000
   -5   -4    3    7    6    0.000000    0.000002
   -5   -4    3    1    7    0.000259    0.000000
   -5   -4    3    2    7   -0.000035    0.000000
   -5   -4    3    3    7   -0.000000    0.000002
   -5   -4    3    4    7   -0.000027   -0.000000
   -5   -4    3    5    7    0.000000    0.000009
   -5   -4    3    6    7   -0.000000   -0.000002
   -5   -4    3    7    7    0.000038   -0.000000
   -5   -4    4    1    1    0.000087   -0.000000
   -5   -4    4    2    1    0.000000    0.000127
   -5   -4    4    3    1    0.000034    0.000022
   -5   -4    4    4    1    0.000155   -0.000001
   -5   -4    4    5    1   -0.000082   -0.000167
   -5   -4    4    6    1   -0.000552    0.000736
   -5   -4    4    7    1   -0.000042    0.000006
   -5   -4    4    1    2   -0.000000   -0.000128
   -5   -4    4    2    2    0.000180   -0.000001
   -5   -4    4    3    2   -0.000413   -0.000337
   -5   -4    4    4    2   -0.000061   -0.000081
   -5   -4    4    5    2    0.000004   -0.000042
   -5   -4    4    6    2   -0.000007   -0.000007
   -5   -4    4    7    2    0.000003   -0.000059
   -5   -4    4    1    3   -0.000018   -0.000000
   -5   -4    4    2    3   -0.000338    0.000213
   -5   -4    4    3    3   -0.000032    0.000000
   -5   -4    4    4    3    0.000079   -0.000073
   -5   -4    4    5    3    0.000099   -0.000057
   -5   -4    4    6    3   -0.000005    0.000000
   -5   -4    4    7    3    0.000000    0.000001
   -5   -4    4    1    4    0.000043    0.000013
   -5   -4    4    2    4   -0.000002   -0.000014
   -5   -4    4    3    4    0.000079    0.000073
   -5   -4    4    4    4   -0.000020   -0.000000
   -5   -4    4    5    4    0.000000   -0.000008
   -5   -4    4    6    4    0.000067    0.000053
   -5   -4    4    7    4   -0.000014    0.000000
   -5   -4    4    1    5   -0.000043    0.000013
   -5   -4    4    2    5    0.000002   -0.000014
   -5   -4    4    3    5    0.000099    0.000057
   -5   -4    4    4    5   -0.000000    0.000008
   -5   -4    4    5    5   -0.000020   -0.000000
   -5   -4    4    6    5   -0.000054   -0.000050
   -5   -4    4    7    5    0.000000    0.000018
   -5   -4    4    1    6   -0.000328   -0.000478
   -5   -4    4    2    6    0.000000    0.000011
   -5   -4    4    3    6   -0.000005   -0.000000
   -5   -4    4    4    6    0.000067   -0.000053
   -5   -4    4    5    6   -0.000054    0.000050
   -5   -4    4    6    6   -0.000004    0.000000
   -5   -4    4    7    6    0.000000   -0.000001
   -5   -4    4    1    7   -0.000048    0.000000
   -5   -4    4    2    7   -0.000038   -0.000000
   -5   -4    4    3    7   -0.000000   -0.000001
   -5   -4    4    4    7   -0.000014    0.000000
   -5   -4    4    5    7   -0.000000   -0.000017
   -5   -4    4    6    7   -0.000000    0.000001
   -5   -4    4    7    7   -0.000058    0.000000
   -5   -4    5    1    1    0.000251   -0.000000
   -5   -4    5    2    1   -0.000000    0.000447
   -5   -4    5    3    1    0.000034    0.000022
   -5   -4    5    4    1   -0.000155    0.000001
   -5   -4    5    5    1    0.000082    0.000167
   -5   -4    5    6    1    0.000509   -0.000728
   -5   -4    5    7    1   -0.000042    0.000006
   -5   -4    5    1    2   -0.000000   -0.000447
   -5   -4    5    2    2   -0.000068    0.000000
   -5   -4    5    3    2    0.000536    0.000351
   -5   -4    5    4    2    0.000061    0.000081
   -5   -4    5    5    2   -0.000004    0.000042
   -5   -4    5    6    2   -0.000007   -0.000007
   -5   -4    5    7    2    0.000003   -0.000059
   -5   -4    5    1    3    0.000016    0.000000
   -5   -4    5    2    3    0.000529   -0.000344
   -5   -4    5    3    3   -0.000118   -0.000000
   -5   -4    5    4    3   -0.000098    0.000075
   -5   -4    5    5    3   -0.000102    0.000070
   -5   -4    5    6    3    0.000008    0.000000
   -5   -4    5    7    3    0.000000    0.000000
   -5   -4    5    1    4   -0.000071    0.000090
   -5   -4    5    2    4    0.000051   -0.000030
   -5   -4    5    3    4   -0.000098   -0.000075
   -5   -4    5    4    4    0.000009    0.000000
   -5   -4    5    5    4    0.000000    0.000003
   -5   -4    5    6    4   -0.000083   -0.000057
   -5   -4    5    7    4   -0.000000   -0.000000
   -5   -4    5    1    5    0.000071    0.000090
   -5   -4    5    2    5   -0.000051   -0.000030
   -5   -4    5    3    5   -0.000102   -0.000070
   -5   -4    5    4    5    0.000000   -0.000003
   -5   -4    5    5    5    0.000019    0.000000
   -5   -4    5    6    5    0.000080    0.000061
   -5   -4    5    7    5    0.000000   -0.000000
   -5   -4    5    1    6    0.000531    0.000734
   -5   -4    5    2    6   -0.000000    0.000006
   -5   -4    5    3    6    0.000008   -0.000000
   -5   -4    5    4    6   -0.000083    0.000057
   -5   -4    5    5    6    0.000080   -0.000061
   -5   -4    5    6    6   -0.000012   -0.000000
   -5   -4    5    7    6    0.000000   -0.000002
   -5   -4    5    1    7   -0.000199   -0.000000
   -5   -4    5    2    7    0.000008   -0.000000
   -5   -4    5    3    7    0.000000   -0.000000
   -5   -4    5    4    7    0.000000   -0.000000
   -5   -4    5    5    7   -0.000000   -0.000000
   -5   -4    5    6    7    0.000000    0.000002
   -5   -4    5    7    7   -0.000101   -0.000000
   -5   -3   -5    1    1    0.001118    0.000000
   -5   -3   -5    2    1    0.000000   -0.000364
   -5   -3   -5    3    1   -0.000650    0.000895
   -5   -3   -5    4    1   -0.000131    0.000000
   -5   -3   -5    5    1   -0.000076   -0.000182
   -5   -3   -5    6    1   -0.000031    0.000019
   -5   -3   -5    7    1   -0.000048    0.000019
   -5   -3   -5    1    2    0.000000    0.000364
   -5   -3   -5    2    2    0.000039   -0.000000
   -5   -3   -5    3    2    0.000159    0.000017
   -5   -3   -5    4    2    0.000111    0.000057
   -5   -3   -5    5    2   -0.000048   -0.000071
   -5   -3   -5    6    2   -0.000420   -0.000268
   -5   -3   -5    7    2   -0.000011    0.000011
   -5   -3   -5    1    3   -0.000619   -0.000879
   -5   -3   -5    2    3   -0.000061   -0.000007
   -5   -3   -5    3    3   -0.000046   -0.000000
   -5   -3   -5    4    3    0.000102   -0.000070
   -5   -3   -5    5    3   -0.000098    0.000075
   -5   -3   -5    6    3    0.000031    0.000000
   -5   -3   -5    7    3   -0.000000    0.000008
   -5   -3   -5    1    4   -0.000155    0.000001
   -5   -3   -5    2    4   -0.000061   -0.000081
   -5   -3   -5    3    4    0.000102    0.000070
   -5   -3   -5    4    4   -0.000009   -0.000000
   -5   -3   -5    5    4    0.000000    0.000044
   -5   -3   -5    6    4    0.000080    0.000061
   -5   -3   -5    7    4    0.000000    0.000000
   -5   -3   -5    1    5   -0.000082   -0.000167
   -5   -3   -5    2    5   -0.000004    0.000042
   -5   -3   -5    3    5   -0.000098   -0.000075
   -5   -3   -5    4    5    0.000000   -0.000044
   -5   -3   -5    5    5   -0.000013   -0.000000
   -5   -3   -5    6    5    0.000083    0.000057
   -5   -3   -5    7    5   -0.000000    0.000000
   -5   -3   -5    1    6   -0.000021    0.000004
   -5   -3   -5    2    6   -0.000378    0.000287
   -5   -3   -5    3    6    0.000031   -0.000000
   -5   -3   -5    4    6    0.000080   -0.000061
   -5   -3   -5    5    6    0.000083   -0.000057
   -5   -3   -5    6    6   -0.000016    0.000000
   -5   -3   -5    7    6   -0.000000   -0.000003
   -5   -3   -5    1    7    0.000042   -0.000006
   -5   -3   -5    2    7    0.000003   -0.000059
   -5   -3   -5    3    7   -0.000000   -0.000008
   -5   -3   -5    4    7   -0.000000    0.000000
   -5   -3   -5    5    7    0.000000    0.000000
   -5   -3   -5    6    7   -0.000000    0.000003
   -5   -3   -5    7    7   -0.000049    0.000000
   -5   -3   -4    1    1   -0.000053    0.000000
   -5   -3   -4    2    1   -0.000001   -0.000262
   -5   -3   -4    3    1    0.000215   -0.000601
   -5   -3   -4    4    1    0.000045    0.000123
   -5   -3   -4    5    1    0.000016    0.000080
   -5   -3   -4    6    1   -0.000042   -0.000057
   -5   -3   -4    7    1   -0.000020   -0.000035
   -5   -3   -4    1    2    0.000001    0.000262
   -5   -3   -4    2    2    0.000026   -0.000000
   -5   -3   -4    3    2   -0.000123   -0.000081
   -5   -3   -4    4    2   -0.000009   -0.000034
   -5   -3   -4    5    2   -0.000011   -0.000024
   -5   -3   -4    6    2    0.000295    0.000105
   -5   -3   -4    7    2    0.000098   -0.000019
   -5   -3   -4    1    3    0.000687    0.000923
   -5   -3   -4    2    3   -0.000061   -0.000007
   -5   -3   -4    3    3   -0.000056   -0.000000
   -5   -3   -4    4    3   -0.000083    0.000032
   -5   -3   -4    5    3    0.000126   -0.000061
   -5   -3   -4    6    3    0.000014    0.000000
   -5   -3   -4    7    3   -0.000000    0.000007
   -5   -3   -4    1    4    0.000155   -0.000001
   -5   -3   -4    2    4    0.000061    0.000081
   -5   -3   -4    3    4   -0.000083   -0.000032
   -5   -3   -4    4    4   -0.000007   -0.000000
   -5   -3   -4    5    4    0.000000   -0.000023
   -5   -3   -4    6    4   -0.000064   -0.000034
   -5   -3   -4    7    4   -0.000024   -0.000000
   -5   -3   -4    1    5    0.000082    0.000167
   -5   -3   -4    2    5    0.000004   -0.000042
   -5   -3   -4    3    5    0.000126    0.000061
   -5   -3   -4    4    5   -0.000000    0.000023
   -5   -3   -4    5    5    0.000021    0.000000
   -5   -3   -4    6    5   -0.000081   -0.000046
   -5   -3   -4    7    5    0.000000    0.000017
   -5   -3   -4    1    6   -0.000021    0.000004
   -5   -3   -4    2    6    0.000392   -0.000272
   -5   -3   -4    3    6    0.000014    0.000000
   -5   -3   -4    4    6   -0.000065    0.000034
   -5   -3   -4    5    6   -0.000081    0.000046
   -5   -3   -4    6    6    0.000000    0.000000
   -5   -3   -4    7    6    0.000000    0.000003
   -5   -3   -4    1    7    0.000042   -0.000006
   -5   -3   -4    2    7    0.000003   -0.000059
   -5   -3   -4    3    7    0.000000   -0.000007
   -5   -3   -4    4    7   -0.000024   -0.000000
   -5   -3   -4    5    7   -0.000000   -0.000017
   -5   -3   -4    6    7   -0.000000   -0.000003
   -5   -3   -4    7    7   -0.000035    0.000000
   -5   -3   -3    1    1   -0.000544   -0.000000
   -5   -3   -3    2    1    0.000001    0.000454
   -5   -3   -3    3    1    0.000308    0.000060
   -5   -3   -3    4    1    0.000169   -0.000104
   -5   -3   -3    5    1    0.000069    0.000073
   -5   -3   -3    6    1    0.000151    0.000070
   -5   -3   -3    7    1    0.000112    0.000043
   -5   -3   -3    1    2   -0.000001   -0.000455
   -5   -3   -3    2    2   -0.000129    0.000000
   -5   -3   -3    3    2   -0.000064    0.000110
   -5   -3   -3    4    2   -0.000114   -0.000093
   -5   -3   -3    5    2    0.000070    0.000075
   -5   -3   -3    6    2    0.000046    0.000166
   -5   -3   -3    7    2   -0.000040    0.000027
   -5   -3   -3    1    3   -0.000409   -0.000545
   -5   -3   -3    2    3   -0.000002   -0.000050
   -5   -3   -3    3    3    0.000092   -0.000000
   -5   -3   -3    4    3    0.000032    0.000032
   -5   -3   -3    5    3    0.000010    0.000023
   -5   -3   -3    6    3   -0.000019   -0.000000
   -5   -3   -3    7    3   -0.000000   -0.000011
   -5   -3   -3    1    4   -0.000034    0.000095
   -5   -3   -3    2    4    0.000030   -0.000032
   -5   -3   -3    3    4    0.000032   -0.000031
   -5   -3   -3    4    4    0.000023    0.000000
   -5   -3   -3    5    4   -0.000000   -0.000029
   -5   -3   -3    6    4    0.000025   -0.000017
   -5   -3   -3    7    4    0.000004   -0.000000
   -5   -3   -3    1    5    0.000042   -0.000060
   -5   -3   -3    2    5    0.000035   -0.000033
   -5   -3   -3    3    5    0.000010   -0.000023
   -5   -3   -3    4    5    0.000000    0.000029
   -5   -3   -3    5    5   -0.000009   -0.000000
   -5   -3   -3    6    5    0.000036    0.000018
   -5   -3   -3    7    5   -0.000000   -0.000024
   -5   -3   -3    1    6    0.000107   -0.000009
   -5   -3   -3    2    6   -0.000264    0.000148
   -5   -3   -3    3    6   -0.000019   -0.000000
   -5   -3   -3    4    6    0.000025    0.000017
   -5   -3   -3    5    6    0.000036   -0.000018
   -5   -3   -3    6    6    0.000028   -0.000000
   -5   -3   -3    7    6    0.000000    0.000002
   -5   -3   -3    1    7   -0.000021    0.000012
   -5   -3   -3    2    7   -0.000029   -0.000005
   -5   -3   -3    3    7    0.000000    0.000011
   -5   -3   -3    4    7    0.000004   -0.000000
   -5   -3   -3    5    7    0.000000    0.000024
   -5   -3   -3    6    7   -0.000000   -0.000002
   -5   -3   -3    7    7    0.000012    0.000000
   -5   -3   -2    1    1    0.000177    0.000000
   -5   -3   -2    2    1   -0.000000    0.000346
   -5   -3   -2    3    1   -0.000967    0.000570
   -5   -3   -2    4    1   -0.000352   -0.000079
   -5   -3   -2    5    1   -0.000238   -0.000041
   -5   -3   -2    6    1   -0.000155   -0.000031
   -5   -3   -2    7    1   -0.000035   -0.000062
   -5   -3   -2    1    2    0.000000   -0.000345
   -5   -3   -2    2    2   -0.000146    0.000000
   -5   -3   -2    3    2    0.000268   -0.000156
   -5   -3   -2    4    2    0.000359    0.000202
   -5   -3   -2    5    2    0.000004   -0.000098
   -5   -3   -2    6    2   -0.000249   -0.000393
   -5   -3   -2    7    2    0.000111   -0.000025
   -5   -3   -2    1    3   -0.000102   -0.000064
   -5   -3   -2    2    3   -0.000072    0.000160
   -5   -3   -2    3    3    0.000036   -0.000000
   -5   -3   -2    4    3    0.000032   -0.000087
   -5   -3   -2    5    3   -0.000060    0.000023
   -5   -3   -2    6    3   -0.000018   -0.000000
   -5   -3   -2    7    3    0.000000   -0.000005
   -5   -3   -2    1    4   -0.000138   -0.000070
   -5   -3   -2    2    4   -0.000010   -0.000065
   -5   -3   -2    3    4    0.000032    0.000087
   -5   -3   -2    4    4   -0.000036    0.000000
   -5   -3   -2    5    4    0.000000    0.000082
   -5   -3   -2    6    4    0.000025    0.000073
   -5   -3   -2    7    4   -0.000019    0.000000
   -5   -3   -2    1    5   -0.000157   -0.000044
   -5   -3   -2    2    5    0.000035    0.000068
   -5   -3   -2    3    5   -0.000060   -0.000023
   -5   -3   -2    4    5   -0.000000   -0.000082
   -5   -3   -2    5    5   -0.000017   -0.000000
   -5   -3   -2    6    5    0.000029    0.000018
   -5   -3   -2    7    5    0.000000    0.000006
   -5   -3   -2    1    6   -0.000220    0.000013
   -5   -3   -2    2    6   -0.000012    0.000051
   -5   -3   -2    3    6   -0.000018   -0.000000
   -5   -3   -2    4    6    0.000025   -0.000073
   -5   -3   -2    5    6    0.000029   -0.000018
   -5   -3   -2    6    6   -0.000043   -0.000000
   -5   -3   -2    7    6   -0.000000   -0.000005
   -5   -3   -2    1    7   -0.000001    0.000012
   -5   -3   -2    2    7    0.000040    0.000065
   -5   -3   -2    3    7   -0.000000    0.000005
   -5   -3   -2    4    7   -0.000019    0.000000
   -5   -3   -2    5    7   -0.000000   -0.000006
   -5   -3   -2    6    7    0.000000    0.000005
   -5   -3   -2    7    7    0.000012   -0.000000
   -5   -3   -1    1    1   -0.001452   -0.000000
   -5   -3   -1    2    1    0.000000   -0.000630
   -5   -3   -1    3    1    0.000805   -0.000868
   -5   -3   -1    4    1    0.000573    0.000219
   -5   -3   -1    5    1    0.000285   -0.000164
   -5   -3   -1    6    1    0.000156   -0.000009
   -5   -3   -1    7    1   -0.000011    0.000035
   -5   -3   -1    1    2   -0.000000    0.000629
   -5   -3   -1    2    2    0.000742   -0.000000
   -5   -3   -1    3    2   -0.000169    0.000105
   -5   -3   -1    4    2   -0.000533   -0.000283
   -5   -3   -1    5    2    0.000018    0.000104
   -5   -3   -1    6    2    0.000346    0.000387
   -5   -3   -1    7    2   -0.000205   -0.000026
   -5   -3   -1    1    3    0.000663    0.000575
   -5   -3   -1    2    3   -0.000029   -0.000235
   -5   -3   -1    3    3   -0.000002    0.000000
   -5   -3   -1    4    3   -0.000083    0.000115
   -5   -3   -1    5    3    0.000055   -0.000061
   -5   -3   -1    6    3    0.000023    0.000000
   -5   -3   -1    7    3    0.000000    0.000002
   -5   -3   -1    1    4    0.000165   -0.000066
   -5   -3   -1    2    4   -0.000035    0.000121
   -5   -3   -1    3    4   -0.000083   -0.000115
   -5   -3   -1    4    4    0.000085   -0.000000
   -5   -3   -1    5    4   -0.000000   -0.000122
   -5   -3   -1    6    4   -0.000064   -0.000095
   -5   -3   -1    7    4    0.000022    0.000000
   -5   -3   -1    1    5    0.000295    0.000087
   -5   -3   -1    2    5    0.000032   -0.000096
   -5   -3   -1    3    5    0.000055    0.000061
   -5   -3   -1    4    5    0.000000    0.000122
   -5   -3   -1    5    5   -0.000000    0.000000
   -5   -3   -1    6    5   -0.000115   -0.000046
   -5   -3   -1    7    5    0.000000    0.000009
   -5   -3   -1    1    6    0.000253   -0.000020
   -5   -3   -1    2    6    0.000376   -0.000258
   -5   -3   -1    3    6    0.000023    0.000000
   -5   -3   -1    4    6   -0.000065    0.000095
   -5   -3   -1    5    6   -0.000115    0.000046
   -5   -3   -1    6    6   -0.000041    0.000000
   -5   -3   -1    7    6    0.000000   -0.000000
   -5   -3   -1    1    7   -0.000096   -0.000034
   -5   -3   -1    2    7   -0.000027    0.000028
   -5   -3   -1    3    7   -0.000000   -0.000002
   -5   -3   -1    4    7    0.000022    0.000000
   -5   -3   -1    5    7   -0.000000   -0.000009
   -5   -3   -1    6    7   -0.000000    0.000000
   -5   -3   -1    7    7   -0.000015    0.000000
   -5   -3    0    1    1   -0.000363    0.000000
   -5   -3    0    2    1    0.000000    0.000636
   -5   -3    0    3    1   -0.000501    0.000933
   -5   -3    0    4    1   -0.000573   -0.000219
   -5   -3    0    5    1   -0.000285    0.000163
   -5   -3    0    6    1    0.000156   -0.000009
   -5   -3    0    7    1   -0.000011    0.000035
   -5   -3    0    1    2    0.000000   -0.000636
   -5   -3    0    2    2   -0.001282    0.000000
   -5   -3    0    3    2   -0.000169    0.000105
   -5   -3    0    4    2    0.000533    0.000283
   -5   -3    0    5    2   -0.000018   -0.000104
   -5   -3    0    6    2   -0.000424   -0.000172
   -5   -3    0    7    2   -0.000205   -0.000026
   -5   -3    0    1    3   -0.000700   -0.000927
   -5   -3    0    2    3    0.000072    0.000121
   -5   -3    0    3    3    0.000163   -0.000000
   -5   -3    0    4    3    0.000102   -0.000070
   -5   -3    0    5    3   -0.000098    0.000075
   -5   -3    0    6    3   -0.000009   -0.000000
   -5   -3    0    7    3   -0.000000   -0.000014
   -5   -3    0    1    4   -0.000254    0.000142
   -5   -3    0    2    4    0.000198   -0.000160
   -5   -3    0    3    4    0.000102    0.000070
   -5   -3    0    4    4   -0.000122   -0.000000
   -5   -3    0    5    4   -0.000000    0.000140
   -5   -3    0    6    4    0.000080    0.000061
   -5   -3    0    7    4   -0.000000   -0.000000
   -5   -3    0    1    5   -0.000319   -0.000124
   -5   -3    0    2    5   -0.000062    0.000132
   -5   -3    0    3    5   -0.000098   -0.000075
   -5   -3    0    4    5   -0.000000   -0.000140
   -5   -3    0    5    5    0.000022   -0.000000
   -5   -3    0    6    5    0.000083    0.000057
   -5   -3    0    7    5    0.000000   -0.000000
   -5   -3    0    1    6   -0.000133    0.000013
   -5   -3    0    2    6   -0.000490    0.000332
   -5   -3    0    3    6   -0.000009    0.000000
   -5   -3    0    4    6    0.000080   -0.000061
   -5   -3    0    5    6    0.000083   -0.000057
   -5   -3    0    6    6   -0.000029   -0.000000
   -5   -3    0    7    6   -0.000000    0.000006
   -5   -3    0    1    7   -0.000242    0.000022
   -5   -3    0    2    7   -0.000008   -0.000041
   -5   -3    0    3    7   -0.000000    0.000014
   -5   -3    0    4    7    0.000000   -0.000000
   -5   -3    0    5    7   -0.000000   -0.000000
   -5   -3    0    6    7   -0.000000   -0.000006
   -5   -3    0    7    7   -0.000077   -0.000000
   -5   -3    1    1    1   -0.001452    0.000000
   -5   -3    1    2    1   -0.000000   -0.000629
   -5   -3    1    3    1   -0.000159   -0.000543
   -5   -3    1    4    1    0.000352    0.000079
   -5   -3    1    5    1    0.000238    0.000041
   -5   -3    1    6    1   -0.000154   -0.000031
   -5   -3    1    7    1   -0.000035   -0.000062
   -5   -3    1    1    2    0.000000    0.000630
   -5   -3    1    2    2    0.000742    0.000000
   -5   -3    1    3    2    0.000268   -0.000156
   -5   -3    1    4    2   -0.000359   -0.000202
   -5   -3    1    5    2   -0.000004    0.000098
   -5   -3    1    6    2    0.000228   -0.000047
   -5   -3    1    7    2    0.000110   -0.000025
   -5   -3    1    1    3    0.000607    0.000874
   -5   -3    1    2    3    0.000072    0.000121
   -5   -3    1    3    3   -0.000002   -0.000000
   -5   -3    1    4    3   -0.000083   -0.000002
   -5   -3    1    5    3    0.000104   -0.000061
   -5   -3    1    6    3    0.000023   -0.000000
   -5   -3    1    7    3   -0.000000    0.000002
   -5   -3    1    1    4    0.000254   -0.000142
   -5   -3    1    2    4   -0.000198    0.000160
   -5   -3    1    3    4   -0.000083    0.000002
   -5   -3    1    4    4    0.000085    0.000000
   -5   -3    1    5    4    0.000000   -0.000122
   -5   -3    1    6    4   -0.000064   -0.000004
   -5   -3    1    7    4   -0.000022    0.000000
   -5   -3    1    1    5    0.000319    0.000124
   -5   -3    1    2    5    0.000062   -0.000132
   -5   -3    1    3    5    0.000104    0.000061
   -5   -3    1    4    5   -0.000000    0.000122
   -5   -3    1    5    5   -0.000000   -0.000000
   -5   -3    1    6    5   -0.000019   -0.000046
   -5   -3    1    7    5    0.000000   -0.000009
   -5   -3    1    1    6   -0.000133    0.000013
   -5   -3    1    2    6    0.000281   -0.000227
   -5   -3    1    3    6    0.000023   -0.000000
   -5   -3    1    4    6   -0.000065    0.000004
   -5   -3    1    5    6   -0.000019    0.000046
   -5   -3    1    6    6   -0.000041   -0.000000
   -5   -3    1    7    6   -0.000000   -0.000000
   -5   -3    1    1    7   -0.000242    0.000022
   -5   -3    1    2    7   -0.000008   -0.000041
   -5   -3    1    3    7    0.000000   -0.000002
   -5   -3    1    4    7   -0.000022    0.000000
   -5   -3    1    5    7   -0.000000    0.000009
   -5   -3    1    6    7    0.000000    0.000000
   -5   -3    1    7    7   -0.000015   -0.000000
   -5   -3    2    1    1    0.000177   -0.000000
   -5   -3    2    2    1    0.000000    0.000345
   -5   -3    2    3    1    0.000308    0.000061
   -5   -3    2    4    1   -0.000169    0.000104
   -5   -3    2    5    1   -0.000069   -0.000073
   -5   -3    2    6    1    0.000151    0.000070
   -5   -3    2    7    1    0.000112    0.000044
   -5   -3    2    1    2   -0.000000   -0.000346
   -5   -3    2    2    2   -0.000146   -0.000000
   -5   -3    2    3    2   -0.000064    0.000110
   -5   -3    2    4    2    0.000114    0.000093
   -5   -3    2    5    2   -0.000070   -0.000075
   -5   -3    2    6    2    0.000046    0.000167
   -5   -3    2    7    2   -0.000040    0.000027
   -5   -3    2    1    3   -0.000144   -0.000538
   -5   -3    2    2    3   -0.000029   -0.000235
   -5   -3    2    3    3    0.000036    0.000000
   -5   -3    2    4    3    0.000032    0.000044
   -5   -3    2    5    3   -0.000000    0.000023
   -5   -3    2    6    3   -0.000018    0.000000
   -5   -3    2    7    3   -0.000000   -0.000005
   -5   -3    2    1    4   -0.000165    0.000066
   -5   -3    2    2    4    0.000034   -0.000121
   -5   -3    2    3    4    0.000032   -0.000044
   -5   -3    2    4    4   -0.000036   -0.000000
   -5   -3    2    5    4   -0.000000    0.000082
   -5   -3    2    6    4    0.000025   -0.000035
   -5   -3    2    7    4    0.000019    0.000000
   -5   -3    2    1    5   -0.000295   -0.000087
   -5   -3    2    2    5   -0.000032    0.000096
   -5   -3    2    3    5   -0.000000   -0.000023
   -5   -3    2    4    5    0.000000   -0.000082
   -5   -3    2    5    5   -0.000017    0.000000
   -5   -3    2    6    5    0.000022    0.000018
   -5   -3    2    7    5    0.000000   -0.000006
   -5   -3    2    1    6    0.000253   -0.000020
   -5   -3    2    2    6   -0.000100    0.000088
   -5   -3    2    3    6   -0.000018    0.000000
   -5   -3    2    4    6    0.000025    0.000035
   -5   -3    2    5    6    0.000022   -0.000018
   -5   -3    2    6    6   -0.000043    0.000000
   -5   -3    2    7    6    0.000000   -0.000005
[...]
    5    5   -3    1    7    0.000047    0.000000
    5    5   -3    2    7   -0.000038    0.000000
    5    5   -3    3    7   -0.000000    0.000000
    5    5   -3    4    7    0.000000   -0.000000
    5    5   -3    5    7   -0.000000    0.000000
    5    5   -3    6    7    0.000000   -0.000004
    5    5   -3    7    7   -0.000097    0.000000
    5    5   -2    1    1    0.001208   -0.000000
    5    5   -2    2    1   -0.000000   -0.000000
    5    5   -2    3    1   -0.000627    0.000557
    5    5   -2    4    1   -0.000240   -0.000002
    5    5   -2    5    1   -0.000240    0.000002
    5    5   -2    6    1   -0.000000   -0.000013
    5    5   -2    7    1   -0.000415    0.000000
    5    5   -2    1    2    0.000000    0.000000
    5    5   -2    2    2    0.000717    0.000000
    5    5   -2    3    2    0.000025    0.000000
    5    5   -2    4    2   -0.000003    0.000100
    5    5   -2    5    2   -0.000003   -0.000100
    5    5   -2    6    2   -0.000238   -0.000278
    5    5   -2    7    2   -0.000047    0.000000
    5    5   -2    1    3    0.000168    0.000000
    5    5   -2    2    3    0.000071    0.000000
    5    5   -2    3    3   -0.000212    0.000000
    5    5   -2    4    3    0.000032   -0.000022
    5    5   -2    5    3   -0.000030    0.000023
    5    5   -2    6    3    0.000000   -0.000000
    5    5   -2    7    3   -0.000000   -0.000000
    5    5   -2    1    4    0.000000   -0.000041
    5    5   -2    2    4   -0.000058   -0.000042
    5    5   -2    3    4    0.000032    0.000022
    5    5   -2    4    4   -0.000024   -0.000000
    5    5   -2    5    4   -0.000000    0.000065
    5    5   -2    6    4    0.000025    0.000019
    5    5   -2    7    4    0.000000   -0.000000
    5    5   -2    1    5    0.000000    0.000041
    5    5   -2    2    5   -0.000058    0.000042
    5    5   -2    3    5   -0.000030   -0.000023
    5    5   -2    4    5   -0.000000   -0.000065
    5    5   -2    5    5   -0.000024    0.000000
    5    5   -2    6    5    0.000026    0.000018
    5    5   -2    7    5   -0.000000   -0.000000
    5    5   -2    1    6    0.000000   -0.000041
    5    5   -2    2    6   -0.000000   -0.000058
    5    5   -2    3    6    0.000000   -0.000000
    5    5   -2    4    6    0.000025   -0.000019
    5    5   -2    5    6    0.000026   -0.000018
    5    5   -2    6    6   -0.000058    0.000000
    5    5   -2    7    6    0.000000   -0.000007
    5    5   -2    1    7   -0.000259   -0.000000
    5    5   -2    2    7   -0.000035   -0.000000
    5    5   -2    3    7    0.000000    0.000000
    5    5   -2    4    7    0.000000    0.000000
    5    5   -2    5    7   -0.000000    0.000000
    5    5   -2    6    7    0.000000    0.000007
    5    5   -2    7    7   -0.000305   -0.000000
    5    5   -1    1    1    0.000740    0.000000
    5    5   -1    2    1   -0.000001   -0.000000
    5    5   -1    3    1    0.000715   -0.000901
    5    5   -1    4    1    0.000350   -0.000003
    5    5   -1    5    1    0.000350    0.000003
    5    5   -1    6    1    0.000000   -0.000000
    5    5   -1    7    1   -0.000190    0.000000
    5    5   -1    1    2    0.000001    0.000000
    5    5   -1    2    2    0.000201   -0.000000
    5    5   -1    3    2   -0.000079   -0.000000
    5    5   -1    4    2   -0.000077   -0.000158
    5    5   -1    5    2   -0.000077    0.000158
    5    5   -1    6    2    0.000385    0.000344
    5    5   -1    7    2   -0.000270    0.000000
    5    5   -1    1    3    0.000180    0.000557
    5    5   -1    2    3    0.000025   -0.000000
    5    5   -1    3    3   -0.000090   -0.000000
    5    5   -1    4    3   -0.000083    0.000057
    5    5   -1    5    3    0.000079   -0.000061
    5    5   -1    6    3    0.000000    0.000000
    5    5   -1    7    3   -0.000000   -0.000000
    5    5   -1    1    4    0.000240   -0.000002
    5    5   -1    2    4    0.000003    0.000100
    5    5   -1    3    4   -0.000083   -0.000057
    5    5   -1    4    4    0.000035   -0.000000
    5    5   -1    5    4    0.000000   -0.000118
    5    5   -1    6    4   -0.000064   -0.000050
    5    5   -1    7    4    0.000000    0.000000
    5    5   -1    1    5    0.000240    0.000002
    5    5   -1    2    5    0.000003   -0.000100
    5    5   -1    3    5    0.000079    0.000061
    5    5   -1    4    5    0.000000    0.000118
    5    5   -1    5    5    0.000035    0.000000
    5    5   -1    6    5   -0.000067   -0.000046
    5    5   -1    7    5   -0.000000   -0.000000
    5    5   -1    1    6   -0.000000    0.000013
    5    5   -1    2    6    0.000238   -0.000068
    5    5   -1    3    6    0.000000    0.000000
    5    5   -1    4    6   -0.000064    0.000050
    5    5   -1    5    6   -0.000067    0.000046
    5    5   -1    6    6    0.000013    0.000000
    5    5   -1    7    6   -0.000000   -0.000003
    5    5   -1    1    7   -0.000415   -0.000000
    5    5   -1    2    7   -0.000047   -0.000000
    5    5   -1    3    7    0.000000   -0.000000
    5    5   -1    4    7    0.000000   -0.000000
    5    5   -1    5    7   -0.000000    0.000000
    5    5   -1    6    7   -0.000000    0.000003
    5    5   -1    7    7   -0.000301    0.000000
    5    5    0    1    1    0.000817    0.000000
    5    5    0    2    1    0.000000    0.000000
    5    5    0    3    1   -0.000592    0.000901
    5    5    0    4    1   -0.000350    0.000003
    5    5    0    5    1   -0.000350   -0.000003
    5    5    0    6    1    0.000000   -0.000000
    5    5    0    7    1   -0.000190    0.000000
    5    5    0    1    2    0.000000   -0.000000
    5    5    0    2    2   -0.001000   -0.000000
    5    5    0    3    2   -0.000079   -0.000000
    5    5    0    4    2    0.000077    0.000158
    5    5    0    5    2    0.000077   -0.000158
    5    5    0    6    2   -0.000385   -0.000215
    5    5    0    7    2   -0.000270    0.000000
    5    5    0    1    3   -0.000592   -0.000901
    5    5    0    2    3   -0.000079    0.000000
    5    5    0    3    3    0.000173   -0.000000
    5    5    0    4    3    0.000102   -0.000070
    5    5    0    5    3   -0.000098    0.000075
    5    5    0    6    3   -0.000000    0.000000
    5    5    0    7    3    0.000000    0.000000
    5    5    0    1    4   -0.000350   -0.000003
    5    5    0    2    4    0.000077   -0.000158
    5    5    0    3    4    0.000102    0.000070
    5    5    0    4    4   -0.000036    0.000000
    5    5    0    5    4   -0.000000    0.000142
    5    5    0    6    4    0.000080    0.000061
    5    5    0    7    4    0.000000   -0.000000
    5    5    0    1    5   -0.000350    0.000003
    5    5    0    2    5    0.000077    0.000158
    5    5    0    3    5   -0.000098   -0.000075
    5    5    0    4    5   -0.000000   -0.000142
    5    5    0    5    5   -0.000036    0.000000
    5    5    0    6    5    0.000083    0.000057
    5    5    0    7    5   -0.000000   -0.000000
    5    5    0    1    6    0.000000    0.000000
    5    5    0    2    6   -0.000385    0.000215
    5    5    0    3    6   -0.000000   -0.000000
    5    5    0    4    6    0.000080   -0.000061
    5    5    0    5    6    0.000083   -0.000057
    5    5    0    6    6    0.000114   -0.000000
    5    5    0    7    6   -0.000000    0.000010
    5    5    0    1    7   -0.000190   -0.000000
    5    5    0    2    7   -0.000270   -0.000000
    5    5    0    3    7    0.000000   -0.000000
    5    5    0    4    7    0.000000    0.000000
    5    5    0    5    7   -0.000000    0.000000
    5    5    0    6    7   -0.000000   -0.000010
    5    5    0    7    7   -0.000260   -0.000000
    5    5    1    1    1    0.000740   -0.000000
    5    5    1    2    1    0.000001   -0.000000
    5    5    1    3    1    0.000180   -0.000557
    5    5    1    4    1    0.000240    0.000002
    5    5    1    5    1    0.000240   -0.000002
    5    5    1    6    1   -0.000000   -0.000013
    5    5    1    7    1   -0.000415    0.000000
    5    5    1    1    2   -0.000001    0.000000
    5    5    1    2    2    0.000201    0.000000
    5    5    1    3    2    0.000025    0.000000
    5    5    1    4    2    0.000003   -0.000100
    5    5    1    5    2    0.000003    0.000100
    5    5    1    6    2    0.000238    0.000068
    5    5    1    7    2   -0.000047    0.000000
    5    5    1    1    3    0.000715    0.000901
    5    5    1    2    3   -0.000079    0.000000
    5    5    1    3    3   -0.000090    0.000000
    5    5    1    4    3   -0.000083    0.000057
    5    5    1    5    3    0.000079   -0.000061
    5    5    1    6    3    0.000000   -0.000000
    5    5    1    7    3    0.000000    0.000000
    5    5    1    1    4    0.000350    0.000003
    5    5    1    2    4   -0.000077    0.000158
    5    5    1    3    4   -0.000083   -0.000057
    5    5    1    4    4    0.000035    0.000000
    5    5    1    5    4    0.000000   -0.000118
    5    5    1    6    4   -0.000064   -0.000050
    5    5    1    7    4    0.000000    0.000000
    5    5    1    1    5    0.000350   -0.000003
    5    5    1    2    5   -0.000077   -0.000158
    5    5    1    3    5    0.000079    0.000061
    5    5    1    4    5    0.000000    0.000118
    5    5    1    5    5    0.000035   -0.000000
    5    5    1    6    5   -0.000067   -0.000046
    5    5    1    7    5   -0.000000   -0.000000
    5    5    1    1    6    0.000000    0.000000
    5    5    1    2    6    0.000385   -0.000344
    5    5    1    3    6    0.000000   -0.000000
    5    5    1    4    6   -0.000064    0.000050
    5    5    1    5    6   -0.000067    0.000046
    5    5    1    6    6    0.000013   -0.000000
    5    5    1    7    6   -0.000000   -0.000003
    5    5    1    1    7   -0.000190   -0.000000
    5    5    1    2    7   -0.000270   -0.000000
    5    5    1    3    7   -0.000000    0.000000
    5    5    1    4    7    0.000000   -0.000000
    5    5    1    5    7   -0.000000    0.000000
    5    5    1    6    7   -0.000000    0.000003
    5    5    1    7    7   -0.000301   -0.000000
    5    5    2    1    1    0.001208    0.000000
    5    5    2    2    1    0.000000   -0.000000
    5    5    2    3    1    0.000168   -0.000000
    5    5    2    4    1    0.000000    0.000041
    5    5    2    5    1    0.000000   -0.000041
    5    5    2    6    1    0.000000    0.000041
    5    5    2    7    1   -0.000259    0.000000
    5    5    2    1    2   -0.000000    0.000000
    5    5    2    2    2    0.000717   -0.000000
    5    5    2    3    2    0.000071   -0.000000
    5    5    2    4    2   -0.000058    0.000042
    5    5    2    5    2   -0.000058   -0.000042
    5    5    2    6    2   -0.000000    0.000058
    5    5    2    7    2   -0.000035    0.000000
    5    5    2    1    3   -0.000627   -0.000557
    5    5    2    2    3    0.000025   -0.000000
    5    5    2    3    3   -0.000212   -0.000000
    5    5    2    4    3    0.000032   -0.000022
    5    5    2    5    3   -0.000030    0.000023
    5    5    2    6    3    0.000000    0.000000
    5    5    2    7    3    0.000000   -0.000000
    5    5    2    1    4   -0.000240    0.000002
    5    5    2    2    4   -0.000003   -0.000100
    5    5    2    3    4    0.000032    0.000022
    5    5    2    4    4   -0.000024    0.000000
    5    5    2    5    4   -0.000000    0.000065
    5    5    2    6    4    0.000025    0.000019
    5    5    2    7    4    0.000000   -0.000000
    5    5    2    1    5   -0.000240   -0.000002
    5    5    2    2    5   -0.000003    0.000100
    5    5    2    3    5   -0.000030   -0.000023
    5    5    2    4    5   -0.000000   -0.000065
    5    5    2    5    5   -0.000024   -0.000000
    5    5    2    6    5    0.000026    0.000018
    5    5    2    7    5   -0.000000   -0.000000
    5    5    2    1    6   -0.000000    0.000013
    5    5    2    2    6   -0.000238    0.000278
    5    5    2    3    6    0.000000    0.000000
    5    5    2    4    6    0.000025   -0.000019
    5    5    2    5    6    0.000026   -0.000018
    5    5    2    6    6   -0.000058   -0.000000
    5    5    2    7    6    0.000000   -0.000007
    5    5    2    1    7   -0.000415   -0.000000
    5    5    2    2    7   -0.000047   -0.000000
    5    5    2    3    7   -0.000000    0.000000
    5    5    2    4    7    0.000000    0.000000
    5    5    2    5    7   -0.000000    0.000000
    5    5    2    6    7    0.000000    0.000007
    5    5    2    7    7   -0.000305    0.000000
    5    5    3    1    1   -0.000127    0.000000
    5    5    3    2    1   -0.000001   -0.000000
    5    5    3    3    1   -0.000422    0.000557
    5    5    3    4    1   -0.000043   -0.000013
    5    5    3    5    1   -0.000043    0.000013
    5    5    3    6    1   -0.000000   -0.000025
    5    5    3    7    1    0.000047   -0.000000
    5    5    3    1    2    0.000001    0.000000
    5    5    3    2    2   -0.000299   -0.000000
    5    5    3    3    2    0.000045    0.000000
    5    5    3    4    2   -0.000003   -0.000014
    5    5    3    5    2   -0.000003    0.000014
    5    5    3    6    2   -0.000238   -0.000184
    5    5    3    7    2   -0.000038   -0.000000
    5    5    3    1    3    0.000168    0.000000
    5    5    3    2    3    0.000071    0.000000
    5    5    3    3    3   -0.000059   -0.000000
    5    5    3    4    3    0.000032   -0.000022
    5    5    3    5    3   -0.000030    0.000023
    5    5    3    6    3   -0.000000    0.000000
    5    5    3    7    3   -0.000000   -0.000000
    5    5    3    1    4   -0.000000    0.000041
    5    5    3    2    4    0.000058    0.000042
    5    5    3    3    4    0.000032    0.000022
    5    5    3    4    4    0.000016   -0.000000
    5    5    3    5    4    0.000000   -0.000018
    5    5    3    6    4    0.000025    0.000019
    5    5    3    7    4    0.000000    0.000000
    5    5    3    1    5   -0.000000   -0.000041
    5    5    3    2    5    0.000058   -0.000042
    5    5    3    3    5   -0.000030   -0.000023
    5    5    3    4    5    0.000000    0.000018
    5    5    3    5    5    0.000016    0.000000
    5    5    3    6    5    0.000026    0.000018
    5    5    3    7    5   -0.000000   -0.000000
    5    5    3    1    6    0.000000   -0.000041
    5    5    3    2    6   -0.000000   -0.000058
    5    5    3    3    6   -0.000000    0.000000
    5    5    3    4    6    0.000025   -0.000019
    5    5    3    5    6    0.000026   -0.000018
    5    5    3    6    6    0.000030    0.000000
    5    5    3    7    6    0.000000    0.000004
    5    5    3    1    7   -0.000259   -0.000000
    5    5    3    2    7   -0.000035   -0.000000
    5    5    3    3    7    0.000000    0.000000
    5    5    3    4    7    0.000000   -0.000000
    5    5    3    5    7   -0.000000    0.000000
    5    5    3    6    7    0.000000   -0.000004
    5    5    3    7    7   -0.000097   -0.000000
    5    5    4    1    1   -0.000384   -0.000000
    5    5    4    2    1    0.000000    0.000000
    5    5    4    3    1    0.000669   -0.000901
    5    5    4    4    1    0.000071   -0.000090
    5    5    4    5    1    0.000071    0.000090
    5    5    4    6    1    0.000000    0.000002
    5    5    4    7    1    0.000199   -0.000000
    5    5    4    1    2   -0.000000   -0.000000
    5    5    4    2    2   -0.000177    0.000000
    5    5    4    3    2   -0.000054   -0.000000
    5    5    4    4    2    0.000051   -0.000030
    5    5    4    5    2    0.000051    0.000030
    5    5    4    6    2    0.000385    0.000273
    5    5    4    7    2    0.000008   -0.000000
    5    5    4    1    3    0.000385    0.000557
    5    5    4    2    3    0.000045   -0.000000
    5    5    4    3    3    0.000067    0.000000
    5    5    4    4    3   -0.000083    0.000057
    5    5    4    5    3    0.000079   -0.000061
    5    5    4    6    3   -0.000000   -0.000000
    5    5    4    7    3   -0.000000    0.000000
    5    5    4    1    4    0.000043   -0.000013
    5    5    4    2    4    0.000002   -0.000015
    5    5    4    3    4   -0.000083   -0.000057
    5    5    4    4    4   -0.000029    0.000000
    5    5    4    5    4   -0.000000   -0.000023
    5    5    4    6    4   -0.000064   -0.000050
    5    5    4    7    4   -0.000000    0.000000
    5    5    4    1    5    0.000043    0.000013
    5    5    4    2    5    0.000002    0.000015
    5    5    4    3    5    0.000079    0.000061
    5    5    4    4    5   -0.000000    0.000023
    5    5    4    5    5   -0.000029   -0.000000
    5    5    4    6    5   -0.000067   -0.000046
    5    5    4    7    5   -0.000000   -0.000000
    5    5    4    1    6   -0.000000    0.000025
    5    5    4    2    6    0.000238   -0.000162
    5    5    4    3    6   -0.000000   -0.000000
    5    5    4    4    6   -0.000064    0.000050
    5    5    4    5    6   -0.000067    0.000046
    5    5    4    6    6    0.000010    0.000000
    5    5    4    7    6   -0.000000   -0.000000
    5    5    4    1    7    0.000048    0.000000
    5    5    4    2    7   -0.000039    0.000000
    5    5    4    3    7    0.000000   -0.000000
    5    5    4    4    7   -0.000000   -0.000000
    5    5    4    5    7   -0.000000    0.000000
    5    5    4    6    7   -0.000000    0.000000
    5    5    4    7    7    0.000128   -0.000000
    5    5    5    1    1   -0.000777   -0.000000
    5    5    5    2    1   -0.000000    0.000000
    5    5    5    3    1   -0.000638    0.000901
    5    5    5    4    1   -0.000071    0.000090
    5    5    5    5    1   -0.000071   -0.000090
    5    5    5    6    1    0.000000    0.000002
    5    5    5    7    1    0.000199   -0.000000
    5    5    5    1    2   -0.000000   -0.000000
    5    5    5    2    2    0.000321   -0.000000
    5    5    5    3    2   -0.000054   -0.000000
    5    5    5    4    2   -0.000051    0.000030
    5    5    5    5    2   -0.000051   -0.000030
    5    5    5    6    2   -0.000385   -0.000286
    5    5    5    7    2    0.000008   -0.000000
    5    5    5    1    3   -0.000638   -0.000901
    5    5    5    2    3   -0.000054    0.000000
    5    5    5    3    3    0.000188   -0.000000
    5    5    5    4    3    0.000102   -0.000070
    5    5    5    5    3   -0.000098    0.000075
    5    5    5    6    3    0.000000    0.000000
    5    5    5    7    3   -0.000000    0.000000
    5    5    5    1    4   -0.000071   -0.000090
    5    5    5    2    4   -0.000051   -0.000030
    5    5    5    3    4    0.000102    0.000070
    5    5    5    4    4    0.000041   -0.000000
    5    5    5    5    4   -0.000000    0.000046
    5    5    5    6    4    0.000080    0.000061
    5    5    5    7    4    0.000000    0.000000
    5    5    5    1    5   -0.000071    0.000090
    5    5    5    2    5   -0.000051    0.000030
    5    5    5    3    5   -0.000098   -0.000075
    5    5    5    4    5   -0.000000   -0.000046
    5    5    5    5    5    0.000041   -0.000000
    5    5    5    6    5    0.000083    0.000057
    5    5    5    7    5    0.000000   -0.000000
    5    5    5    1    6    0.000000   -0.000002
    5    5    5    2    6   -0.000385    0.000286
    5    5    5    3    6    0.000000   -0.000000
    5    5    5    4    6    0.000080   -0.000061
    5    5    5    5    6    0.000083   -0.000057
    5    5    5    6    6   -0.000013   -0.000000
    5    5    5    7    6   -0.000000   -0.000006
    5    5    5    1    7    0.000199    0.000000
    5    5    5    2    7    0.000008    0.000000
    5    5    5    3    7   -0.000000   -0.000000
    5    5    5    4    7    0.000000   -0.000000
    5    5    5    5    7    0.000000    0.000000
    5    5    5    6    7   -0.000000    0.000006
    5    5    5    7    7    0.000216   -0.000000
