
     Program PWSCF v.7.2 starts on 23Apr2025 at 13:59:24 

     This program is part of the open-source Quantum ESPRESSO suite
     for quantum simulation of materials; please cite
         "P. Giannozzi et al., J. Phys.:Condens. Matter 21 395502 (2009);
         "P. Giannozzi et al., J. Phys.:Condens. Matter 29 465901 (2017);
         "P. Giannozzi et al., J. Chem. Phys. 152 154105 (2020);
          URL http://www.quantum-espresso.org", 
     in publications or presentations arising from this work. More details at
     http://www.quantum-espresso.org/quote

     Parallel version (MPI), running on   128 processors

     MPI processes distributed on     2 nodes
     506807 MiB available memory on the printing compute node when the environment starts
 
     Reading input from scf.in
Warning: card &CELL ignored
Warning: card   PRESS_CONV_THR = 0.01 ignored
Warning: card / ignored

     Current dimensions of program PWSCF are:
     Max number of different atomic species (ntypx) = 10
     Max number of k-points (npk) =  40000
     Max angular momentum in pseudopotentials (lmaxx) =  4

     IMPORTANT: XC functional enforced from input :
     Exchange-correlation= HSE
                           (   1   4  12   4   0   0   0)
     EXX-fraction              =        0.25
     Any further DFT definition will be discarded
     Please, verify this is what you really want

 
     K-points division:     npool     =       8
     R & G space division:  proc/nbgrp/npool/nimage =      16
     Subspace diagonalization in iterative solution of the eigenvalue problem:
     a serial algorithm will be used

     EXX: q-point mesh:     4    4    4
     EXX: setup a grid of 512 q-points centered on each k-point
     (set verbosity='high' to see the list)
 
     Parallelization info
     --------------------
     sticks:   dense  smooth     PW     G-vecs:    dense   smooth      PW
     Min         108     108     31                 2973     2973     461
     Max         109     109     32                 2976     2976     465
     Sum        1735    1735    499                47591    47591    7391
 
     Using Slab Decomposition
 


     bravais-lattice index     =            2
     lattice parameter (alat)  =      10.6900  a.u.
     unit-cell volume          =     305.4029 (a.u.)^3
     number of atoms/cell      =            2
     number of atomic types    =            1
     number of electrons       =        44.00
     number of Kohn-Sham states=           64
     kinetic-energy cutoff     =     110.0000  Ry
     charge density cutoff     =     440.0000  Ry
     cutoff for Fock operator  =     220.0000  Ry
     scf convergence threshold =      1.0E-11
     mixing beta               =       0.7000
     number of iterations used =            8  plain     mixing
     Exchange-correlation= HSE
                           (   1   4  12   4   0   0   0)
     EXX-fraction              =        0.25
     Non magnetic calculation with spin-orbit


     celldm(1)=  10.690000  celldm(2)=   0.000000  celldm(3)=   0.000000
     celldm(4)=   0.000000  celldm(5)=   0.000000  celldm(6)=   0.000000

     crystal axes: (cart. coord. in units of alat)
               a(1) = (  -0.500000   0.000000   0.500000 )  
               a(2) = (   0.000000   0.500000   0.500000 )  
               a(3) = (  -0.500000   0.500000   0.000000 )  

     reciprocal axes: (cart. coord. in units 2 pi/alat)
               b(1) = ( -1.000000 -1.000000  1.000000 )  
               b(2) = (  1.000000  1.000000  1.000000 )  
               b(3) = ( -1.000000  1.000000 -1.000000 )  


     PseudoPot. # 1 for Ge read from file:
     ../pseudo/Ge_DOJO_LDA_high_nocc_FR.upf
     MD5 check sum: 462b4b3c76abd268428d2e9de3ced6e0
     Pseudo is Norm-conserving, Zval = 22.0
     Generated using ONCVPSP code by D. R. Hamann
     Using radial grid of 1542 points, 10 beta functions with: 
                l(1) =   0
                l(2) =   0
                l(3) =   1
                l(4) =   1
                l(5) =   1
                l(6) =   1
                l(7) =   2
                l(8) =   2
                l(9) =   2
               l(10) =   2

     atomic species   valence    mass     pseudopotential
        Ge            22.00    72.64000     Ge( 1.00)

     48 Sym. Ops., with inversion, found (24 have fractional translation)



   Cartesian axes

     site n.     atom                  positions (alat units)
         1           Ge  tau(   1) = (   0.0000000   0.0000000   0.0000000  )
         2           Ge  tau(   2) = (   0.2500000   0.2500000   0.2500000  )

     number of k points=    29
                       cart. coord. in units 2pi/alat
        k(    1) = (   0.0000000   0.0000000   0.0000000), wk =   0.0019531
        k(    2) = (  -0.1250000   0.1250000  -0.1250000), wk =   0.0156250
        k(    3) = (  -0.2500000   0.2500000  -0.2500000), wk =   0.0156250
        k(    4) = (  -0.3750000   0.3750000  -0.3750000), wk =   0.0156250
        k(    5) = (   0.5000000  -0.5000000   0.5000000), wk =   0.0078125
        k(    6) = (   0.0000000   0.2500000   0.0000000), wk =   0.0117188
        k(    7) = (  -0.1250000   0.3750000  -0.1250000), wk =   0.0468750
        k(    8) = (  -0.2500000   0.5000000  -0.2500000), wk =   0.0468750
        k(    9) = (   0.6250000  -0.3750000   0.6250000), wk =   0.0468750
        k(   10) = (   0.5000000  -0.2500000   0.5000000), wk =   0.0468750
        k(   11) = (   0.3750000  -0.1250000   0.3750000), wk =   0.0468750
        k(   12) = (   0.2500000   0.0000000   0.2500000), wk =   0.0234375
        k(   13) = (   0.0000000   0.5000000   0.0000000), wk =   0.0117188
        k(   14) = (  -0.1250000   0.6250000  -0.1250000), wk =   0.0468750
        k(   15) = (   0.7500000  -0.2500000   0.7500000), wk =   0.0468750
        k(   16) = (   0.6250000  -0.1250000   0.6250000), wk =   0.0468750
        k(   17) = (   0.5000000   0.0000000   0.5000000), wk =   0.0234375
        k(   18) = (   0.0000000   0.7500000   0.0000000), wk =   0.0117188
        k(   19) = (   0.8750000  -0.1250000   0.8750000), wk =   0.0468750
        k(   20) = (   0.7500000   0.0000000   0.7500000), wk =   0.0234375
        k(   21) = (   0.0000000  -1.0000000   0.0000000), wk =   0.0058594
        k(   22) = (  -0.2500000   0.5000000   0.0000000), wk =   0.0468750
        k(   23) = (   0.6250000  -0.3750000   0.8750000), wk =   0.0937500
        k(   24) = (   0.5000000  -0.2500000   0.7500000), wk =   0.0468750
        k(   25) = (   0.7500000  -0.2500000   1.0000000), wk =   0.0468750
        k(   26) = (   0.6250000  -0.1250000   0.8750000), wk =   0.0937500
        k(   27) = (   0.5000000   0.0000000   0.7500000), wk =   0.0468750
        k(   28) = (  -0.2500000  -1.0000000   0.0000000), wk =   0.0234375
        k(   29) = (  -0.5000000  -1.0000000   0.0000000), wk =   0.0117188

     Dense  grid:    47591 G-vectors     FFT dimensions: (  60,  60,  60)

     Estimated max dynamical RAM per process >       2.08 GB

     Estimated total dynamical RAM >     265.57 GB
     EXX: ACE will be initialized later

     Initial potential from superposition of free atoms

     starting charge      43.9986, renormalised to      44.0000
     Starting wfcs are   52 randomized atomic wfcs +   12 random wfcs

     total cpu time spent up to now is        2.9 secs

     Self-consistent Calculation

     iteration #  1     ecut=   110.00 Ry     beta= 0.70
     Davidson diagonalization with overlap
     ethr =  1.00E-02,  avg # of iterations =  6.6

     Threshold (ethr) on eigenvalues was too large:
     Diagonalizing with lowered threshold

     Davidson diagonalization with overlap
     ethr =  7.71E-05,  avg # of iterations =  4.4

     total cpu time spent up to now is        3.9 secs

     total energy              =   -1105.22965924 Ry
     estimated scf accuracy    <       0.03485032 Ry

     iteration #  2     ecut=   110.00 Ry     beta= 0.70
     Davidson diagonalization with overlap
     ethr =  7.92E-05,  avg # of iterations =  2.0

     total cpu time spent up to now is        4.3 secs

     total energy              =   -1105.23128433 Ry
     estimated scf accuracy    <       0.00221814 Ry

     iteration #  3     ecut=   110.00 Ry     beta= 0.70
     Davidson diagonalization with overlap
     ethr =  5.04E-06,  avg # of iterations =  2.6

     total cpu time spent up to now is        4.8 secs

     total energy              =   -1105.23149298 Ry
     estimated scf accuracy    <       0.00016048 Ry

     iteration #  4     ecut=   110.00 Ry     beta= 0.70
     Davidson diagonalization with overlap
     ethr =  3.65E-07,  avg # of iterations =  3.5

     total cpu time spent up to now is        5.3 secs

     total energy              =   -1105.23151830 Ry
     estimated scf accuracy    <       0.00000151 Ry

     iteration #  5     ecut=   110.00 Ry     beta= 0.70
     Davidson diagonalization with overlap
     ethr =  3.43E-09,  avg # of iterations =  5.0

     total cpu time spent up to now is        5.8 secs

     End of self-consistent calculation

          k = 0.0000 0.0000 0.0000 (  5961 PWs)   bands (ev):

  -152.5215-152.5215-152.5190-152.5190-103.3566-103.3566-103.3490-103.3490
   -99.0641 -99.0641 -99.0641 -99.0641 -99.0548 -99.0548 -99.0548 -99.0548
   -15.1269 -15.1269 -15.1269 -15.1269 -15.0660 -15.0660 -15.0660 -15.0660
   -14.6177 -14.6177 -14.4817 -14.4817 -14.4817 -14.4817 -14.4423 -14.4423
   -14.4423 -14.4423 -14.3740 -14.3740  -2.3491  -2.3491  10.1627  10.1627
    10.4554  10.4554  10.4554  10.4554  10.5931  10.5931  12.7595  12.7595
    12.9707  12.9707  12.9707  12.9707  16.8247  16.8247  19.7255  19.7255
    19.7255  19.7255  21.1027  21.1027  21.1352  21.1352  21.1352  21.1352

          k =-0.1250 0.1250-0.1250 (  5961 PWs)   bands (ev):

  -152.5214-152.5214-152.5191-152.5191-103.3564-103.3564-103.3492-103.3492
   -99.0642 -99.0642 -99.0637 -99.0637 -99.0551 -99.0551 -99.0547 -99.0547
   -15.1282 -15.1282 -15.1243 -15.1243 -15.0683 -15.0683 -15.0641 -15.0641
   -14.6114 -14.6114 -14.4931 -14.4931 -14.4873 -14.4873 -14.4357 -14.4357
   -14.4338 -14.4338 -14.3765 -14.3765  -2.1584  -2.1584   8.0716   8.0716
     9.9272   9.9272  10.1170  10.1170  11.4941  11.4941  13.2792  13.2792
    13.4228  13.4228  13.8801  13.8801  17.7449  17.7449  18.8512  18.8512
    18.8533  18.8533  20.4534  20.4534  22.7059  22.7059  22.7268  22.7268

          k =-0.2500 0.2500-0.2500 (  5961 PWs)   bands (ev):

  -152.5212-152.5212-152.5193-152.5193-103.3558-103.3558-103.3498-103.3498
   -99.0644 -99.0644 -99.0627 -99.0627 -99.0561 -99.0561 -99.0545 -99.0545
   -15.1306 -15.1306 -15.1174 -15.1174 -15.0745 -15.0745 -15.0600 -15.0600
   -14.5954 -14.5954 -14.5134 -14.5134 -14.4971 -14.4971 -14.4240 -14.4240
   -14.4206 -14.4206 -14.3833 -14.3833  -1.6049  -1.6049   5.7008   5.7008
     9.3817   9.3817   9.5679   9.5679  11.1140  11.1140  13.9114  13.9114
    14.0454  14.0454  16.0511  16.0511  18.3863  18.3863  18.6036  18.6036
    18.6209  18.6209  21.2709  21.2709  25.3370  25.3370  25.3612  25.3612

          k =-0.3750 0.3750-0.3750 (  5951 PWs)   bands (ev):

  -152.5210-152.5210-152.5195-152.5195-103.3550-103.3550-103.3505-103.3505
   -99.0646 -99.0646 -99.0613 -99.0613 -99.0576 -99.0576 -99.0543 -99.0543
   -15.1325 -15.1325 -15.1081 -15.1081 -15.0826 -15.0826 -15.0567 -15.0567
   -14.5761 -14.5761 -14.5329 -14.5329 -14.5042 -14.5042 -14.4147 -14.4147
   -14.4100 -14.4100 -14.3921 -14.3921  -0.7924  -0.7924   3.7403   3.7403
     8.9954   8.9954   9.1807   9.1807  10.7540  10.7540  14.0641  14.0641
    14.1680  14.1680  17.6088  17.6088  18.7234  18.7234  19.7761  19.7761
    19.8299  19.8299  23.1084  23.1084  25.0531  25.0531  25.1126  25.1126

          k = 0.5000-0.5000 0.5000 (  5936 PWs)   bands (ev):

  -152.5209-152.5209-152.5196-152.5196-103.3547-103.3547-103.3509-103.3509
   -99.0646 -99.0646 -99.0600 -99.0600 -99.0588 -99.0588 -99.0542 -99.0542
   -15.1331 -15.1331 -15.1019 -15.1019 -15.0884 -15.0884 -15.0553 -15.0553
   -14.5638 -14.5638 -14.5444 -14.5444 -14.5067 -14.5067 -14.4113 -14.4113
   -14.4028 -14.4028 -14.3991 -14.3991  -0.2491  -0.2491   2.8069   2.8069
     8.8611   8.8611   9.0463   9.0463  10.6257  10.6257  14.0314  14.0314
    14.1228  14.1228  17.4782  17.4782  20.9267  20.9267  21.5195  21.5195
    21.5455  21.5455  21.6171  21.6171  22.6979  22.6979  22.7112  22.7112

          k = 0.0000 0.2500 0.0000 (  5962 PWs)   bands (ev):

  -152.5214-152.5214-152.5191-152.5191-103.3563-103.3563-103.3493-103.3493
   -99.0639 -99.0639 -99.0639 -99.0639 -99.0549 -99.0549 -99.0549 -99.0549
   -15.1274 -15.1274 -15.1246 -15.1246 -15.0690 -15.0690 -15.0636 -15.0636
   -14.6092 -14.6092 -14.4988 -14.4988 -14.4857 -14.4857 -14.4353 -14.4353
   -14.4313 -14.4313 -14.3770 -14.3770  -2.0939  -2.0939   8.0595   8.0595
     9.4296   9.4296   9.5315   9.5315  12.2575  12.2575  12.7134  12.7134
    14.0807  14.0807  14.1247  14.1247  17.6769  17.6769  18.0376  18.0376
    19.9915  19.9915  21.6433  21.6433  21.6581  21.6581  22.4852  22.4852

          k =-0.1250 0.3750-0.1250 (  5957 PWs)   bands (ev):

  -152.5212-152.5212-152.5193-152.5193-103.3558-103.3558-103.3498-103.3498
   -99.0641 -99.0641 -99.0631 -99.0631 -99.0557 -99.0557 -99.0547 -99.0547
   -15.1294 -15.1294 -15.1195 -15.1195 -15.0736 -15.0736 -15.0602 -15.0602
   -14.5964 -14.5964 -14.5144 -14.5144 -14.4925 -14.4925 -14.4307 -14.4307
   -14.4195 -14.4195 -14.3806 -14.3806  -1.6568  -1.6568   6.2551   6.2551
     8.8176   8.8176   8.9510   8.9510  12.2896  12.2896  13.0388  13.0388
    14.9276  14.9276  15.2216  15.2216  17.6513  17.6513  19.3311  19.3311
    19.8055  19.8055  21.3886  21.3886  23.5074  23.5074  24.7829  24.7829

          k =-0.2500 0.5000-0.2500 (  5973 PWs)   bands (ev):

  -152.5210-152.5210-152.5195-152.5195-103.3551-103.3551-103.3505-103.3505
   -99.0644 -99.0644 -99.0618 -99.0618 -99.0571 -99.0571 -99.0544 -99.0544
   -15.1319 -15.1319 -15.1114 -15.1114 -15.0810 -15.0810 -15.0561 -15.0561
   -14.5787 -14.5787 -14.5301 -14.5301 -14.5006 -14.5006 -14.4300 -14.4300
   -14.4075 -14.4075 -14.3840 -14.3840  -0.9067  -0.9067   4.2897   4.2897
     8.1693   8.1693   8.6118   8.6118  12.0312  12.0312  13.6747  13.6747
    15.0908  15.0908  15.9680  15.9680  19.1952  19.1952  19.7135  19.7135
    20.6389  20.6389  22.7502  22.7502  24.8652  24.8652  26.0592  26.0592

          k = 0.6250-0.3750 0.6250 (  5951 PWs)   bands (ev):

  -152.5208-152.5208-152.5197-152.5197-103.3545-103.3545-103.3510-103.3510
   -99.0646 -99.0646 -99.0602 -99.0602 -99.0586 -99.0586 -99.0543 -99.0543
   -15.1331 -15.1331 -15.1042 -15.1042 -15.0876 -15.0876 -15.0535 -15.0535
   -14.5653 -14.5653 -14.5400 -14.5400 -14.5054 -14.5054 -14.4312 -14.4312
   -14.4026 -14.4026 -14.3839 -14.3839  -0.1532  -0.1532   2.9438   2.9438
     7.7164   7.7164   8.6053   8.6053  11.8138  11.8138  13.8897  13.8897
    14.8086  14.8086  17.5490  17.5490  19.2661  19.2661  21.2392  21.2392
    21.5475  21.5475  22.1103  22.1103  23.0440  23.0440  25.6703  25.6703

          k = 0.5000-0.2500 0.5000 (  5952 PWs)   bands (ev):

  -152.5209-152.5209-152.5196-152.5196-103.3547-103.3547-103.3509-103.3509
   -99.0646 -99.0646 -99.0606 -99.0606 -99.0582 -99.0582 -99.0543 -99.0543
   -15.1331 -15.1331 -15.1054 -15.1054 -15.0865 -15.0865 -15.0537 -15.0537
   -14.5689 -14.5689 -14.5374 -14.5374 -14.5037 -14.5037 -14.4325 -14.4325
   -14.4018 -14.4018 -14.3845 -14.3845  -0.3606  -0.3606   3.2759   3.2759
     7.5721   7.5721   8.9042   8.9042  11.8357  11.8357  14.1196  14.1196
    14.5155  14.5155  17.7517  17.7517  19.2467  19.2467  19.3289  19.3289
    21.1934  21.1934  22.8762  22.8762  24.6868  24.6868  25.6056  25.6056

          k = 0.3750-0.1250 0.3750 (  5961 PWs)   bands (ev):

  -152.5211-152.5211-152.5194-152.5194-103.3554-103.3554-103.3502-103.3502
   -99.0644 -99.0644 -99.0621 -99.0621 -99.0567 -99.0567 -99.0544 -99.0544
   -15.1317 -15.1317 -15.1133 -15.1133 -15.0793 -15.0793 -15.0567 -15.0567
   -14.5851 -14.5851 -14.5249 -14.5249 -14.4972 -14.4972 -14.4334 -14.4334
   -14.4072 -14.4072 -14.3840 -14.3840  -1.1876  -1.1876   4.9139   4.9139
     7.8085   7.8085   9.4333   9.4333  12.0645  12.0645  14.1116  14.1116
    14.3256  14.3256  16.0899  16.0899  17.8892  17.8892  19.2789  19.2789
    20.7333  20.7333  22.2421  22.2421  24.9317  24.9317  25.1997  25.1997

          k = 0.2500 0.0000 0.2500 (  5961 PWs)   bands (ev):

  -152.5213-152.5213-152.5192-152.5192-103.3560-103.3560-103.3496-103.3496
   -99.0642 -99.0642 -99.0632 -99.0632 -99.0556 -99.0556 -99.0546 -99.0546
   -15.1295 -15.1295 -15.1206 -15.1206 -15.0722 -15.0722 -15.0611 -15.0611
   -14.6019 -14.6019 -14.5077 -14.5077 -14.4905 -14.4905 -14.4346 -14.4346
   -14.4209 -14.4209 -14.3798 -14.3798  -1.8448  -1.8448   6.8024   6.8024
     8.6108   8.6108   9.9787   9.9787  12.1619  12.1619  13.4653  13.4653
    13.6547  13.6547  15.1735  15.1735  17.8418  17.8418  18.8703  18.8703
    18.9432  18.9432  21.6359  21.6359  22.3219  22.3219  25.0316  25.0316

          k = 0.0000 0.5000 0.0000 (  5982 PWs)   bands (ev):

  -152.5211-152.5211-152.5194-152.5194-103.3555-103.3555-103.3501-103.3501
   -99.0635 -99.0635 -99.0635 -99.0635 -99.0554 -99.0554 -99.0554 -99.0554
   -15.1279 -15.1279 -15.1196 -15.1196 -15.0744 -15.0744 -15.0599 -15.0599
   -14.5873 -14.5873 -14.5243 -14.5243 -14.4942 -14.4942 -14.4288 -14.4288
   -14.4180 -14.4180 -14.3799 -14.3799  -1.3365  -1.3365   5.7308   5.7308
     8.2930   8.2930   8.3421   8.3421  11.3753  11.3753  13.1421  13.1421
    16.1804  16.1804  16.2057  16.2057  17.4799  17.4799  20.5377  20.5377
    20.7911  20.7911  23.2473  23.2473  23.2497  23.2497  23.9708  23.9708

          k =-0.1250 0.6250-0.1250 (  5949 PWs)   bands (ev):

  -152.5209-152.5209-152.5196-152.5196-103.3548-103.3548-103.3508-103.3508
   -99.0639 -99.0639 -99.0623 -99.0623 -99.0565 -99.0565 -99.0549 -99.0549
   -15.1293 -15.1293 -15.1150 -15.1150 -15.0781 -15.0781 -15.0570 -15.0570
   -14.5730 -14.5730 -14.5343 -14.5343 -14.4982 -14.4982 -14.4388 -14.4388
   -14.4062 -14.4062 -14.3782 -14.3782  -0.6755  -0.6755   4.3655   4.3655
     7.5002   7.5002   7.9705   7.9705  11.6332  11.6332  13.0812  13.0812
    16.1334  16.1334  16.8148  16.8148  19.6750  19.6750  21.3708  21.3708
    21.5336  21.5336  23.4074  23.4074  24.9357  24.9357  25.3657  25.3657

          k = 0.7500-0.2500 0.7500 (  5943 PWs)   bands (ev):

  -152.5207-152.5207-152.5198-152.5198-103.3541-103.3541-103.3514-103.3514
   -99.0642 -99.0642 -99.0609 -99.0609 -99.0580 -99.0580 -99.0546 -99.0546
   -15.1315 -15.1315 -15.1102 -15.1102 -15.0829 -15.0829 -15.0528 -15.0528
   -14.5647 -14.5647 -14.5353 -14.5353 -14.5012 -14.5012 -14.4512 -14.4512
   -14.4016 -14.4016 -14.3731 -14.3731   0.1597   0.1597   3.0464   3.0464
     6.6334   6.6334   7.9552   7.9552  11.7823  11.7823  14.6079  14.6079
    15.7994  15.7994  16.5605  16.5605  20.3636  20.3636  21.6813  21.6813
    22.1717  22.1717  22.6846  22.6846  23.7104  23.7104  27.1843  27.1843

          k = 0.6250-0.1250 0.6250 (  5943 PWs)   bands (ev):

  -152.5207-152.5207-152.5199-152.5199-103.3540-103.3540-103.3515-103.3515
   -99.0644 -99.0644 -99.0597 -99.0597 -99.0591 -99.0591 -99.0544 -99.0544
   -15.1330 -15.1330 -15.1075 -15.1075 -15.0860 -15.0860 -15.0504 -15.0504
   -14.5653 -14.5653 -14.5331 -14.5331 -14.5003 -14.5003 -14.4564 -14.4564
   -14.4009 -14.4009 -14.3714 -14.3714   0.3241   0.3241   2.8321   2.8321
     6.2085   6.2085   8.2760   8.2760  11.9979  11.9979  15.4199  15.4199
    16.0119  16.0119  17.1695  17.1695  18.0666  18.0666  19.3083  19.3083
    22.1899  22.1899  24.4732  24.4732  26.2944  26.2944  26.5191  26.5191

          k = 0.5000 0.0000 0.5000 (  5933 PWs)   bands (ev):

  -152.5209-152.5209-152.5196-152.5196-103.3547-103.3547-103.3509-103.3509
   -99.0644 -99.0644 -99.0611 -99.0611 -99.0578 -99.0578 -99.0544 -99.0544
   -15.1329 -15.1329 -15.1084 -15.1084 -15.0850 -15.0850 -15.0520 -15.0520
   -14.5719 -14.5719 -14.5335 -14.5335 -14.4969 -14.4969 -14.4483 -14.4483
   -14.4008 -14.4008 -14.3773 -14.3773  -0.4578  -0.4578   3.9060   3.9060
     6.4895   6.4895   8.8530   8.8530  12.3600  12.3600  15.1413  15.1413
    15.4761  15.4761  15.7068  15.7068  17.9534  17.9534  19.8230  19.8230
    22.3029  22.3029  22.9619  22.9619  24.1727  24.1727  26.7995  26.7995

          k = 0.0000 0.7500 0.0000 (  5942 PWs)   bands (ev):

  -152.5207-152.5207-152.5198-152.5198-103.3542-103.3542-103.3513-103.3513
   -99.0630 -99.0630 -99.0630 -99.0630 -99.0558 -99.0558 -99.0558 -99.0558
   -15.1260 -15.1260 -15.1176 -15.1176 -15.0743 -15.0743 -15.0603 -15.0603
   -14.5625 -14.5625 -14.5420 -14.5420 -14.4969 -14.4969 -14.4490 -14.4490
   -14.3978 -14.3978 -14.3783 -14.3783  -0.1044  -0.1044   3.5295   3.5295
     7.5361   7.5361   7.5571   7.5571  10.9377  10.9377  11.9327  11.9327
    18.3812  18.3812  18.4444  18.4444  19.6968  19.6968  22.1283  22.1283
    22.7973  22.7973  24.8632  24.8632  24.9476  24.9476  25.9052  25.9052

          k = 0.8750-0.1250 0.8750 (  5935 PWs)   bands (ev):

  -152.5205-152.5205-152.5200-152.5200-103.3535-103.3535-103.3521-103.3521
   -99.0636 -99.0636 -99.0618 -99.0618 -99.0570 -99.0570 -99.0552 -99.0552
   -15.1271 -15.1271 -15.1162 -15.1162 -15.0757 -15.0757 -15.0578 -15.0578
   -14.5594 -14.5594 -14.5399 -14.5399 -14.4925 -14.4925 -14.4648 -14.4648
   -14.3950 -14.3950 -14.3737 -14.3737   0.7285   0.7285   2.4794   2.4794
     6.7896   6.7896   7.4602   7.4602  11.2587  11.2587  12.3096  12.3096
    18.2819  18.2819  18.6787  18.6787  20.9695  20.9695  22.1685  22.1685
    22.3602  22.3602  23.9669  23.9669  24.8561  24.8561  26.2922  26.2922

          k = 0.7500 0.0000 0.7500 (  5936 PWs)   bands (ev):

  -152.5204-152.5204-152.5201-152.5201-103.3533-103.3533-103.3522-103.3522
   -99.0641 -99.0641 -99.0605 -99.0605 -99.0584 -99.0584 -99.0547 -99.0547
   -15.1307 -15.1307 -15.1124 -15.1124 -15.0809 -15.0809 -15.0521 -15.0521
   -14.5635 -14.5635 -14.5307 -14.5307 -14.4937 -14.4937 -14.4712 -14.4712
   -14.3990 -14.3990 -14.3678 -14.3678   1.0796   1.0796   2.1383   2.1383
     6.0146   6.0146   7.7231   7.7231  11.5220  11.5220  14.4501  14.4501
    17.6008  17.6008  17.7522  17.7522  18.5424  18.5424  20.0957  20.0957
    23.9915  23.9915  25.1136  25.1136  26.3071  26.3071  26.3871  26.3871

          k = 0.0000-1.0000 0.0000 (  5962 PWs)   bands (ev):

  -152.5203-152.5203-152.5203-152.5203-103.3528-103.3528-103.3528-103.3528
   -99.0628 -99.0628 -99.0628 -99.0628 -99.0561 -99.0561 -99.0561 -99.0561
   -15.1216 -15.1216 -15.1216 -15.1216 -15.0670 -15.0670 -15.0670 -15.0670
   -14.5505 -14.5505 -14.5505 -14.5505 -14.4787 -14.4787 -14.4787 -14.4787
   -14.3834 -14.3834 -14.3834 -14.3834   1.5472   1.5472   1.5472   1.5472
     7.2815   7.2815   7.2815   7.2815  11.1093  11.1093  11.1093  11.1093
    19.8959  19.8959  19.8959  19.8959  22.0333  22.0333  22.0333  22.0333
    23.0939  23.0939  23.0939  23.0939  24.0085  24.0085  24.0085  24.0085

          k =-0.2500 0.5000 0.0000 (  5963 PWs)   bands (ev):

  -152.5211-152.5211-152.5195-152.5195-103.3553-103.3553-103.3503-103.3503
   -99.0642 -99.0642 -99.0624 -99.0624 -99.0565 -99.0565 -99.0547 -99.0547
   -15.1307 -15.1307 -15.1148 -15.1148 -15.0785 -15.0785 -15.0567 -15.0567
   -14.5828 -14.5828 -14.5273 -14.5273 -14.4958 -14.4958 -14.4362 -14.4362
   -14.4086 -14.4086 -14.3807 -14.3807  -1.1098  -1.1098   5.0692   5.0692
     7.4991   7.4991   8.7447   8.7447  12.7191  12.7191  13.2380  13.2380
    14.9872  14.9872  15.9034  15.9034  18.3805  18.3805  20.5123  20.5123
    20.7269  20.7269  22.6758  22.6758  24.1213  24.1213  25.1951  25.1951

          k = 0.6250-0.3750 0.8750 (  5948 PWs)   bands (ev):

  -152.5208-152.5208-152.5197-152.5197-103.3545-103.3545-103.3510-103.3510
   -99.0644 -99.0644 -99.0611 -99.0611 -99.0578 -99.0578 -99.0545 -99.0545
   -15.1323 -15.1323 -15.1092 -15.1092 -15.0840 -15.0840 -15.0527 -15.0527
   -14.5692 -14.5692 -14.5349 -14.5349 -14.4999 -14.4999 -14.4456 -14.4456
   -14.4025 -14.4025 -14.3763 -14.3763  -0.2984  -0.2984   3.6080   3.6080
     6.8170   6.8170   8.2617   8.2617  12.8547  12.8547  13.7845  13.7845
    15.2624  15.2624  16.5053  16.5053  19.6462  19.6462  20.0214  20.0214
    21.8756  21.8756  23.1870  23.1870  24.7049  24.7049  25.7291  25.7291

          k = 0.5000-0.2500 0.7500 (  5936 PWs)   bands (ev):

  -152.5207-152.5207-152.5198-152.5198-103.3541-103.3541-103.3514-103.3514
   -99.0644 -99.0644 -99.0597 -99.0597 -99.0591 -99.0591 -99.0544 -99.0544
   -15.1329 -15.1329 -15.1069 -15.1069 -15.0862 -15.0862 -15.0511 -15.0511
   -14.5646 -14.5646 -14.5347 -14.5347 -14.5030 -14.5030 -14.4499 -14.4499
   -14.4018 -14.4018 -14.3732 -14.3732   0.2646   0.2646   2.7754   2.7754
     6.6390   6.6390   8.0449   8.0449  12.7963  12.7963  13.7499  13.7499
    16.1512  16.1512  17.3307  17.3307  18.1204  18.1204  21.2906  21.2906
    21.8161  21.8161  22.3470  22.3470  25.7497  25.7497  26.8011  26.8011

          k = 0.7500-0.2500 1.0000 (  5957 PWs)   bands (ev):

  -152.5207-152.5207-152.5198-152.5198-103.3541-103.3541-103.3514-103.3514
   -99.0640 -99.0640 -99.0616 -99.0616 -99.0573 -99.0573 -99.0549 -99.0549
   -15.1297 -15.1297 -15.1137 -15.1137 -15.0795 -15.0795 -15.0549 -15.0549
   -14.5644 -14.5644 -14.5369 -14.5369 -14.4982 -14.4982 -14.4537 -14.4537
   -14.4008 -14.4008 -14.3732 -14.3732   0.0679   0.0679   3.3181   3.3181
     6.8496   6.8496   7.4632   7.4632  12.2452  12.2452  12.9185  12.9185
    15.9612  15.9612  18.2984  18.2984  20.5390  20.5390  20.8294  20.8294
    23.0837  23.0837  23.9218  23.9218  24.5771  24.5771  25.3940  25.3940

          k = 0.6250-0.1250 0.8750 (  5934 PWs)   bands (ev):

  -152.5205-152.5205-152.5200-152.5200-103.3535-103.3535-103.3521-103.3521
   -99.0642 -99.0642 -99.0603 -99.0603 -99.0585 -99.0585 -99.0547 -99.0547
   -15.1311 -15.1311 -15.1124 -15.1124 -15.0813 -15.0813 -15.0513 -15.0513
   -14.5643 -14.5643 -14.5297 -14.5297 -14.4967 -14.4967 -14.4678 -14.4678
   -14.4007 -14.4007 -14.3670 -14.3670   0.8494   0.8494   2.4052   2.4052
     6.2130   6.2130   7.2700   7.2700  12.6639  12.6639  14.5980  14.5980
    15.4584  15.4584  17.4635  17.4635  19.2428  19.2428  21.9947  21.9947
    22.5325  22.5325  23.8115  23.8115  26.0770  26.0770  26.7544  26.7544

          k = 0.5000 0.0000 0.7500 (  5940 PWs)   bands (ev):

  -152.5206-152.5206-152.5199-152.5199-103.3538-103.3538-103.3518-103.3518
   -99.0643 -99.0643 -99.0599 -99.0599 -99.0589 -99.0589 -99.0545 -99.0545
   -15.1323 -15.1323 -15.1103 -15.1103 -15.0836 -15.0836 -15.0502 -15.0502
   -14.5655 -14.5655 -14.5303 -14.5303 -14.4976 -14.4976 -14.4643 -14.4643
   -14.4014 -14.4014 -14.3679 -14.3679   0.5221   0.5221   2.7664   2.7664
     6.0620   6.0620   7.6315   7.6315  13.0471  13.0471  14.8868  14.8868
    15.3495  15.3495  17.1521  17.1521  18.5672  18.5672  20.0062  20.0062
    23.7410  23.7410  24.0093  24.0093  25.2906  25.2906  26.8885  26.8885

          k =-0.2500-1.0000 0.0000 (  5934 PWs)   bands (ev):

  -152.5203-152.5203-152.5203-152.5203-103.3528-103.3528-103.3528-103.3528
   -99.0638 -99.0638 -99.0612 -99.0612 -99.0576 -99.0576 -99.0550 -99.0550
   -15.1280 -15.1280 -15.1160 -15.1160 -15.0767 -15.0767 -15.0555 -15.0555
   -14.5614 -14.5614 -14.5347 -14.5347 -14.4866 -14.4866 -14.4768 -14.4768
   -14.3966 -14.3966 -14.3693 -14.3693   1.5882   1.5882   1.6047   1.6047
     6.7830   6.7830   6.8429   6.8429  12.2769  12.2769  12.3276  12.3276
    17.9390  17.9390  18.0204  18.0204  21.3434  21.3434  21.4958  21.4958
    23.1971  23.1971  23.2661  23.2661  26.5377  26.5377  26.5477  26.5477

          k =-0.5000-1.0000 0.0000 (  5940 PWs)   bands (ev):

  -152.5203-152.5203-152.5203-152.5203-103.3528-103.3528-103.3528-103.3528
   -99.0642 -99.0642 -99.0594 -99.0594 -99.0594 -99.0594 -99.0547 -99.0547
   -15.1308 -15.1308 -15.1143 -15.1143 -15.0800 -15.0800 -15.0506 -15.0506
   -14.5651 -14.5651 -14.5250 -14.5250 -14.4907 -14.4907 -14.4800 -14.4800
   -14.4014 -14.4014 -14.3637 -14.3637   1.6362   1.6362   1.6607   1.6607
     6.4089   6.4089   6.4836   6.4836  14.6484  14.6484  14.7838  14.7838
    15.0496  15.0496  15.0587  15.0587  21.3054  21.3054  21.4575  21.4575
    23.2694  23.2694  23.3696  23.3696  26.8424  26.8424  26.8724  26.8724

     highest occupied, lowest unoccupied level (ev):    10.4554   10.5931

!    total energy              =   -1105.23151864 Ry
     estimated scf accuracy    <       0.00000009 Ry

     convergence has been achieved in   5 iterations

     Using ACE for calculation of exact exchange

     EXX grid:    16865 G-vectors     FFT dimensions: (  36,  36,  36)
     ACE projected onto    64 (nbndproj) and applied to    64 (nbnd) bands

     EXX: now go back to refine exchange calculation

     total cpu time spent up to now is      192.8 secs

     Self-consistent Calculation

     iteration #  1     ecut=   110.00 Ry     beta= 0.70
     Davidson diagonalization with overlap
     ethr =  3.43E-09,  avg # of iterations =  9.3

     total cpu time spent up to now is      193.9 secs

     total energy              =   -1105.33728579 Ry
     estimated scf accuracy    <       0.00065109 Ry

     iteration #  2     ecut=   110.00 Ry     beta= 0.70
     Davidson diagonalization with overlap
     ethr =  1.48E-06,  avg # of iterations =  2.0

     total cpu time spent up to now is      194.4 secs

     total energy              =   -1105.33740023 Ry
     estimated scf accuracy    <       0.00005458 Ry

     iteration #  3     ecut=   110.00 Ry     beta= 0.70
     Davidson diagonalization with overlap
     ethr =  1.24E-07,  avg # of iterations =  2.0

     total cpu time spent up to now is      194.8 secs

     total energy              =   -1105.33740795 Ry
     estimated scf accuracy    <       0.00000285 Ry

     iteration #  4     ecut=   110.00 Ry     beta= 0.70
     Davidson diagonalization with overlap
     ethr =  6.47E-09,  avg # of iterations =  2.4

     total cpu time spent up to now is      195.3 secs

     End of self-consistent calculation

          k = 0.0000 0.0000 0.0000 (  5961 PWs)   bands (ev):

  -161.3416-161.3416-161.3385-161.3385-110.2212-110.2212-110.2134-110.2134
  -105.8713-105.8713-105.8713-105.8713-105.8618-105.8618-105.8618-105.8618
   -18.3297 -18.3297 -18.3297 -18.3297 -18.2677 -18.2677 -18.2677 -18.2677
   -17.8075 -17.8075 -17.6682 -17.6682 -17.6682 -17.6682 -17.6248 -17.6248
   -17.6248 -17.6248 -17.5586 -17.5586  -4.0177  -4.0177   9.8343   9.8343
    10.1541  10.1541  10.1541  10.1541  10.9780  10.9780  13.0822  13.0822
    13.3061  13.3061  13.3061  13.3061  17.2739  17.2739  20.3361  20.3361
    20.3361  20.3361  21.7000  21.7000  21.7325  21.7325  21.7325  21.7325

          k =-0.1250 0.1250-0.1250 (  5961 PWs)   bands (ev):

  -161.3425-161.3425-161.3396-161.3396-110.2207-110.2207-110.2134-110.2134
  -105.8719-105.8719-105.8698-105.8698-105.8622-105.8622-105.8610-105.8610
   -18.3314 -18.3314 -18.3263 -18.3263 -18.2696 -18.2696 -18.2659 -18.2659
   -17.8007 -17.8007 -17.6791 -17.6791 -17.6732 -17.6732 -17.6189 -17.6189
   -17.6166 -17.6166 -17.5609 -17.5609  -3.8108  -3.8108   7.7603   7.7603
     9.6053   9.6053   9.8128   9.8128  11.8241  11.8241  13.6116  13.6116
    13.7622  13.7622  14.2532  14.2532  18.2463  18.2463  19.3876  19.3876
    19.3895  19.3895  20.9919  20.9919  23.3836  23.3836  23.4046  23.4046

          k =-0.2500 0.2500-0.2500 (  5961 PWs)   bands (ev):

  -161.3401-161.3401-161.3377-161.3377-110.2208-110.2208-110.2147-110.2147
  -105.8714-105.8714-105.8713-105.8713-105.8644-105.8644-105.8610-105.8610
   -18.3334 -18.3334 -18.3210 -18.3210 -18.2771 -18.2771 -18.2613 -18.2613
   -17.7849 -17.7849 -17.7003 -17.7003 -17.6827 -17.6827 -17.6076 -17.6076
   -17.6037 -17.6037 -17.5683 -17.5683  -3.1889  -3.1889   5.0080   5.0080
     8.9979   8.9979   9.2036   9.2036  11.3910  11.3910  14.3190  14.3190
    14.4567  14.4567  16.6257  16.6257  18.8862  18.8862  19.1461  19.1461
    19.1645  19.1645  21.9487  21.9487  26.1328  26.1328  26.1571  26.1571

          k =-0.3750 0.3750-0.3750 (  5951 PWs)   bands (ev):

  -161.3420-161.3420-161.3401-161.3401-110.2193-110.2193-110.2147-110.2147
  -105.8726-105.8726-105.8674-105.8674-105.8633-105.8633-105.8615-105.8615
   -18.3358 -18.3358 -18.3100 -18.3100 -18.2843 -18.2843 -18.2585 -18.2585
   -17.7639 -17.7639 -17.7198 -17.7198 -17.6895 -17.6895 -17.5986 -17.5986
   -17.5930 -17.5930 -17.5767 -17.5767  -2.2722  -2.2722   2.7647   2.7647
     8.5554   8.5554   8.7601   8.7601  11.0059  11.0059  14.4618  14.4618
    14.5659  14.5659  18.1254  18.1254  19.4110  19.4110  20.4205  20.4205
    20.4766  20.4766  24.0327  24.0327  25.9403  25.9403  26.0010  26.0010

          k = 0.5000-0.5000 0.5000 (  5936 PWs)   bands (ev):

  -161.3409-161.3409-161.3393-161.3393-110.2192-110.2192-110.2153-110.2153
  -105.8722-105.8722-105.8674-105.8674-105.8655-105.8655-105.8609-105.8609
   -18.3362 -18.3362 -18.3044 -18.3044 -18.2906 -18.2906 -18.2567 -18.2567
   -17.7515 -17.7515 -17.7317 -17.7317 -17.6919 -17.6919 -17.5953 -17.5953
   -17.5853 -17.5853 -17.5843 -17.5843  -1.6781  -1.6781   1.7238   1.7238
     8.4115   8.4115   8.6164   8.6164  10.8697  10.8697  14.4222  14.4222
    14.5130  14.5130  17.9458  17.9458  21.6314  21.6314  22.2928  22.2928
    22.3940  22.3940  22.5568  22.5568  23.4597  23.4597  23.4743  23.4743

          k = 0.0000 0.2500 0.0000 (  5962 PWs)   bands (ev):

  -161.3428-161.3428-161.3399-161.3399-110.2206-110.2206-110.2134-110.2134
  -105.8714-105.8714-105.8701-105.8701-105.8622-105.8622-105.8609-105.8609
   -18.3299 -18.3299 -18.3274 -18.3274 -18.2701 -18.2701 -18.2655 -18.2655
   -17.7984 -17.7984 -17.6849 -17.6849 -17.6713 -17.6713 -17.6188 -17.6188
   -17.6140 -17.6140 -17.5613 -17.5613  -3.7406  -3.7406   7.7775   7.7775
     9.0858   9.0858   9.2056   9.2056  12.5453  12.5453  13.0730  13.0730
    14.4515  14.4515  14.5038  14.5038  18.1457  18.1457  18.5452  18.5452
    20.6047  20.6047  22.2427  22.2427  22.2568  22.2568  23.1004  23.1004

          k =-0.1250 0.3750-0.1250 (  5957 PWs)   bands (ev):

  -161.3421-161.3421-161.3396-161.3396-110.2205-110.2205-110.2143-110.2143
  -105.8722-105.8722-105.8699-105.8699-105.8642-105.8642-105.8601-105.8601
   -18.3321 -18.3321 -18.3228 -18.3228 -18.2762 -18.2762 -18.2610 -18.2610
   -17.7856 -17.7856 -17.7010 -17.7010 -17.6780 -17.6780 -17.6141 -17.6141
   -17.6028 -17.6028 -17.5653 -17.5653  -3.2522  -3.2522   5.6600   5.6600
     8.4544   8.4544   8.5939   8.5939  12.5514  12.5514  13.4088  13.4088
    15.3758  15.3758  15.6718  15.6718  18.1999  18.1999  19.9101  19.9101
    20.4205  20.4205  21.9769  21.9769  24.2035  24.2035  25.4903  25.4903

          k =-0.2500 0.5000-0.2500 (  5973 PWs)   bands (ev):

  -161.3424-161.3424-161.3405-161.3405-110.2196-110.2196-110.2148-110.2148
  -105.8718-105.8718-105.8691-105.8691-105.8641-105.8641-105.8603-105.8603
   -18.3348 -18.3348 -18.3143 -18.3143 -18.2829 -18.2829 -18.2574 -18.2574
   -17.7669 -17.7669 -17.7169 -17.7169 -17.6861 -17.6861 -17.6136 -17.6136
   -17.5914 -17.5914 -17.5680 -17.5680  -2.4079  -2.4079   3.3935   3.3935
     7.7771   7.7771   8.1630   8.1630  12.2856  12.2856  14.0719  14.0719
    15.5444  15.5444  16.4312  16.4312  19.7459  19.7459  20.4483  20.4483
    21.3269  21.3269  23.5655  23.5655  25.7521  25.7521  26.9328  26.9328

          k = 0.6250-0.3750 0.6250 (  5951 PWs)   bands (ev):

  -161.3418-161.3418-161.3404-161.3404-110.2188-110.2188-110.2152-110.2152
  -105.8717-105.8717-105.8675-105.8675-105.8653-105.8653-105.8603-105.8603
   -18.3359 -18.3359 -18.3068 -18.3068 -18.2897 -18.2897 -18.2546 -18.2546
   -17.7529 -17.7529 -17.7269 -17.7269 -17.6906 -17.6906 -17.6151 -17.6151
   -17.5875 -17.5875 -17.5665 -17.5665  -1.5732  -1.5732   1.8792   1.8792
     7.2685   7.2685   8.1514   8.1514  12.0708  12.0708  14.2550  14.2550
    15.2274  15.2274  18.1637  18.1637  19.8076  19.8076  21.9825  21.9825
    22.3134  22.3134  23.0478  23.0478  23.8292  23.8292  26.6032  26.6032

          k = 0.5000-0.2500 0.5000 (  5952 PWs)   bands (ev):

  -161.3422-161.3422-161.3406-161.3406-110.2189-110.2189-110.2150-110.2150
  -105.8718-105.8718-105.8675-105.8675-105.8647-105.8647-105.8605-105.8605
   -18.3360 -18.3360 -18.3076 -18.3076 -18.2887 -18.2887 -18.2549 -18.2549
   -17.7565 -17.7565 -17.7243 -17.7243 -17.6889 -17.6889 -17.6166 -17.6166
   -17.5862 -17.5862 -17.5675 -17.5675  -1.8003  -1.8003   2.2499   2.2499
     7.1026   7.1026   8.4735   8.4735  12.1062  12.1062  14.4827  14.4827
    14.9300  14.9300  18.4052  18.4052  19.8322  19.8322  19.9419  19.9419
    21.9173  21.9173  23.8026  23.8026  25.5644  25.5644  26.5172  26.5172

          k = 0.3750-0.1250 0.3750 (  5961 PWs)   bands (ev):

  -161.3419-161.3419-161.3398-161.3398-110.2201-110.2201-110.2147-110.2147
  -105.8724-105.8724-105.8693-105.8693-105.8643-105.8643-105.8603-105.8603
   -18.3349 -18.3349 -18.3163 -18.3163 -18.2814 -18.2814 -18.2580 -18.2580
   -17.7737 -17.7737 -17.7118 -17.7118 -17.6827 -17.6827 -17.6166 -17.6166
   -17.5914 -17.5914 -17.5683 -17.5683  -2.7244  -2.7244   4.1062   4.1062
     7.3709   7.3709   9.0631   9.0631  12.3700  12.3700  14.5209  14.5209
    14.7144  14.7144  16.6281  16.6281  18.3752  18.3752  19.8551  19.8551
    21.4994  21.4994  22.9509  22.9509  25.6615  25.6615  26.0747  26.0747

          k = 0.2500 0.0000 0.2500 (  5961 PWs)   bands (ev):

  -161.3427-161.3427-161.3401-161.3401-110.2205-110.2205-110.2139-110.2139
  -105.8721-105.8721-105.8695-105.8695-105.8636-105.8636-105.8601-105.8601
   -18.3324 -18.3324 -18.3233 -18.3233 -18.2748 -18.2748 -18.2619 -18.2619
   -17.7910 -17.7910 -17.6939 -17.6939 -17.6763 -17.6763 -17.6175 -17.6175
   -17.6044 -17.6044 -17.5644 -17.5644  -3.4635  -3.4635   6.2940   6.2940
     8.2585   8.2585   9.6717   9.6717  12.5149  12.5149  13.8161  13.8161
    13.9620  13.9620  15.6702  15.6702  18.3017  18.3017  19.4329  19.4329
    19.5128  19.5128  22.2624  22.2624  22.9493  22.9493  25.8031  25.8031

          k = 0.0000 0.5000 0.0000 (  5982 PWs)   bands (ev):

  -161.3397-161.3397-161.3375-161.3375-110.2207-110.2207-110.2152-110.2152
  -105.8722-105.8722-105.8709-105.8709-105.8635-105.8635-105.8622-105.8622
   -18.3317 -18.3317 -18.3225 -18.3225 -18.2773 -18.2773 -18.2612 -18.2612
   -17.7766 -17.7766 -17.7111 -17.7111 -17.6799 -17.6799 -17.6125 -17.6125
   -17.6016 -17.6016 -17.5646 -17.5646  -2.8885  -2.8885   5.0639   5.0639
     7.8090   7.8090   7.8673   7.8673  11.5747  11.5747  13.5084  13.5084
    16.7688  16.7688  16.7948  16.7948  18.0605  18.0605  21.1942  21.1942
    21.4708  21.4708  23.9133  23.9133  23.9173  23.9173  24.5924  24.5924

          k =-0.1250 0.6250-0.1250 (  5949 PWs)   bands (ev):

  -161.3417-161.3417-161.3400-161.3400-110.2195-110.2195-110.2152-110.2152
  -105.8726-105.8726-105.8690-105.8690-105.8630-105.8630-105.8616-105.8616
   -18.3331 -18.3331 -18.3174 -18.3174 -18.2799 -18.2799 -18.2586 -18.2586
   -17.7611 -17.7611 -17.7213 -17.7213 -17.6837 -17.6837 -17.6227 -17.6227
   -17.5905 -17.5905 -17.5621 -17.5621  -2.1468  -2.1468   3.4957   3.4957
     6.9952   6.9952   7.4337   7.4337  11.8220  11.8220  13.4091  13.4091
    16.6821  16.6821  17.4430  17.4430  20.5016  20.5016  22.0762  22.0762
    22.2694  22.2694  24.0918  24.0918  25.8102  25.8102  26.0995  26.0995

          k = 0.7500-0.2500 0.7500 (  5943 PWs)   bands (ev):

  -161.3395-161.3395-161.3384-161.3384-110.2191-110.2191-110.2164-110.2164
  -105.8727-105.8727-105.8685-105.8685-105.8651-105.8651-105.8617-105.8617
   -18.3353 -18.3353 -18.3130 -18.3130 -18.2851 -18.2851 -18.2544 -18.2544
   -17.7522 -17.7522 -17.7223 -17.7223 -17.6872 -17.6872 -17.6362 -17.6362
   -17.5863 -17.5863 -17.5559 -17.5559  -1.2195  -1.2195   2.0075   2.0075
     6.0077   6.0077   7.4225   7.4225  12.0178  12.0178  15.1111  15.1111
    16.2697  16.2697  17.1610  17.1610  21.1146  21.1146  22.4408  22.4408
    22.9664  22.9664  23.4973  23.4973  24.5437  24.5437  28.0138  28.0138

          k = 0.6250-0.1250 0.6250 (  5943 PWs)   bands (ev):

  -161.3414-161.3414-161.3403-161.3403-110.2188-110.2188-110.2160-110.2160
  -105.8734-105.8734-105.8660-105.8660-105.8655-105.8655-105.8614-105.8614
   -18.3366 -18.3366 -18.3096 -18.3096 -18.2879 -18.2879 -18.2525 -18.2525
   -17.7523 -17.7523 -17.7205 -17.7205 -17.6859 -17.6859 -17.6416 -17.6416
   -17.5863 -17.5863 -17.5531 -17.5531  -1.0285  -1.0285   1.7630   1.7630
     5.5156   5.5156   7.7691   7.7691  12.2644  12.2644  15.9419  15.9419
    16.5858  16.5858  17.8348  17.8348  18.6720  18.6720  19.9032  19.9032
    22.8261  22.8261  25.4544  25.4544  27.2480  27.2480  27.4079  27.4079

          k = 0.5000 0.0000 0.5000 (  5933 PWs)   bands (ev):

  -161.3394-161.3394-161.3378-161.3378-110.2198-110.2198-110.2159-110.2159
  -105.8728-105.8728-105.8689-105.8689-105.8654-105.8654-105.8615-105.8615
   -18.3366 -18.3366 -18.3117 -18.3117 -18.2871 -18.2871 -18.2536 -18.2536
   -17.7600 -17.7600 -17.7208 -17.7208 -17.6826 -17.6826 -17.6329 -17.6329
   -17.5858 -17.5858 -17.5601 -17.5601  -1.9098  -1.9098   2.9799   2.9799
     5.8462   5.8462   8.4152   8.4152  12.6902  12.6902  15.6838  15.6838
    15.9334  15.9334  16.2474  16.2474  18.4347  18.4347  20.5606  20.5606
    23.0745  23.0745  23.6120  23.6120  25.0509  25.0509  27.6323  27.6323

          k = 0.0000 0.7500 0.0000 (  5942 PWs)   bands (ev):

  -161.3420-161.3420-161.3408-161.3408-110.2184-110.2184-110.2155-110.2155
  -105.8705-105.8705-105.8698-105.8698-105.8625-105.8625-105.8617-105.8617
   -18.3286 -18.3286 -18.3203 -18.3203 -18.2759 -18.2759 -18.2619 -18.2619
   -17.7495 -17.7495 -17.7289 -17.7289 -17.6830 -17.6830 -17.6335 -17.6335
   -17.5813 -17.5813 -17.5618 -17.5618  -1.5006  -1.5006   2.5530   2.5530
     6.9417   6.9417   6.9650   6.9650  11.0850  11.0850  12.1691  12.1691
    19.1721  19.1721  19.2430  19.2430  20.5185  20.5185  22.8686  22.8686
    23.6267  23.6267  25.7503  25.7503  25.8453  25.8453  26.6413  26.6413

          k = 0.8750-0.1250 0.8750 (  5935 PWs)   bands (ev):

  -161.3414-161.3414-161.3408-161.3408-110.2178-110.2178-110.2163-110.2163
  -105.8710-105.8710-105.8689-105.8689-105.8636-105.8636-105.8612-105.8612
   -18.3299 -18.3299 -18.3190 -18.3190 -18.2775 -18.2775 -18.2592 -18.2592
   -17.7465 -17.7465 -17.7265 -17.7265 -17.6783 -17.6783 -17.6497 -17.6497
   -17.5792 -17.5792 -17.5564 -17.5564  -0.5791  -0.5791   1.3747   1.3747
     6.1756   6.1756   6.8589   6.8589  11.4379  11.4379  12.5377  12.5377
    19.0614  19.0614  19.4764  19.4764  21.8145  21.8145  22.9261  22.9261
    23.2728  23.2728  24.8085  24.8085  25.6466  25.6466  27.1359  27.1359

          k = 0.7500 0.0000 0.7500 (  5936 PWs)   bands (ev):

  -161.3416-161.3416-161.3412-161.3412-110.2180-110.2180-110.2164-110.2164
  -105.8719-105.8719-105.8682-105.8682-105.8642-105.8642-105.8610-105.8610
   -18.3338 -18.3338 -18.3144 -18.3144 -18.2834 -18.2834 -18.2536 -18.2536
   -17.7506 -17.7506 -17.7167 -17.7167 -17.6804 -17.6804 -17.6570 -17.6570
   -17.5833 -17.5833 -17.5497 -17.5497  -0.1834  -0.1834   0.9981   0.9981
     5.2749   5.2749   7.1488   7.1488  11.7286  11.7286  14.8767  14.8767
    18.3497  18.3497  18.4998  18.4998  19.1868  19.1868  20.7046  20.7046
    24.9583  24.9583  25.8485  25.8485  27.1952  27.1952  27.3702  27.3702

          k = 0.0000-1.0000 0.0000 (  5962 PWs)   bands (ev):

  -161.3401-161.3401-161.3401-161.3401-110.2173-110.2173-110.2173-110.2173
  -105.8703-105.8703-105.8703-105.8703-105.8627-105.8627-105.8627-105.8627
   -18.3247 -18.3247 -18.3247 -18.3247 -18.2687 -18.2687 -18.2687 -18.2687
   -17.7374 -17.7374 -17.7374 -17.7374 -17.6644 -17.6644 -17.6644 -17.6643
   -17.5670 -17.5670 -17.5670 -17.5670   0.3309   0.3309   0.3309   0.3309
     6.6679   6.6679   6.6679   6.6679  11.2866  11.2866  11.2866  11.2866
    20.8467  20.8467  20.8467  20.8467  22.9345  22.9345  22.9345  22.9345
    23.8362  23.8362  23.8362  23.8362  24.8249  24.8249  24.8249  24.8249

          k =-0.2500 0.5000 0.0000 (  5963 PWs)   bands (ev):

  -161.3424-161.3424-161.3404-161.3404-110.2200-110.2200-110.2148-110.2148
  -105.8724-105.8724-105.8694-105.8694-105.8637-105.8637-105.8605-105.8605
   -18.3340 -18.3340 -18.3177 -18.3177 -18.2808 -18.2808 -18.2579 -18.2579
   -17.7714 -17.7714 -17.7141 -17.7141 -17.6811 -17.6811 -17.6198 -17.6198
   -17.5926 -17.5926 -17.5651 -17.5651  -2.6395  -2.6395   4.2986   4.2986
     6.9914   6.9914   8.3805   8.3805  12.9729  12.9729  13.6284  13.6284
    15.3645  15.3645  16.4651  16.4651  19.0029  19.0029  21.1804  21.1804
    21.4513  21.4513  23.3391  23.3391  24.8107  24.8107  26.0689  26.0689

          k = 0.6250-0.3750 0.8750 (  5948 PWs)   bands (ev):

  -161.3416-161.3416-161.3401-161.3401-110.2193-110.2193-110.2155-110.2155
  -105.8721-105.8721-105.8688-105.8688-105.8650-105.8650-105.8603-105.8603
   -18.3355 -18.3355 -18.3122 -18.3122 -18.2861 -18.2861 -18.2540 -18.2540
   -17.7571 -17.7571 -17.7217 -17.7217 -17.6856 -17.6856 -17.6302 -17.6302
   -17.5867 -17.5867 -17.5596 -17.5596  -1.7336  -1.7336   2.6392   2.6392
     6.2142   6.2142   7.8386   7.8386  13.1640  13.1640  14.1430  14.1430
    15.7288  15.7288  17.0850  17.0850  20.3520  20.3520  20.7062  20.7062
    22.5354  22.5354  24.1078  24.1078  25.4896  25.4896  26.5943  26.5943

          k = 0.5000-0.2500 0.7500 (  5936 PWs)   bands (ev):

  -161.3420-161.3420-161.3409-161.3409-110.2187-110.2187-110.2157-110.2157
  -105.8724-105.8724-105.8671-105.8671-105.8650-105.8650-105.8607-105.8607
   -18.3361 -18.3361 -18.3096 -18.3096 -18.2878 -18.2878 -18.2527 -18.2527
   -17.7518 -17.7518 -17.7218 -17.7218 -17.6887 -17.6887 -17.6345 -17.6345
   -17.5867 -17.5867 -17.5555 -17.5555  -1.1047  -1.1047   1.6995   1.6995
     6.0111   6.0111   7.5929   7.5929  13.1132  13.1132  14.0564  14.0564
    16.7706  16.7706  18.0180  18.0180  18.6416  18.6416  21.8641  21.8641
    22.5976  22.5976  23.2487  23.2487  26.7560  26.7560  27.7341  27.7341

          k = 0.7500-0.2500 1.0000 (  5957 PWs)   bands (ev):

  -161.3420-161.3420-161.3409-161.3409-110.2187-110.2187-110.2157-110.2157
  -105.8717-105.8717-105.8689-105.8689-105.8636-105.8636-105.8610-105.8610
   -18.3330 -18.3330 -18.3164 -18.3164 -18.2814 -18.2814 -18.2561 -18.2561
   -17.7520 -17.7520 -17.7236 -17.7236 -17.6836 -17.6836 -17.6382 -17.6382
   -17.5853 -17.5853 -17.5563 -17.5563  -1.3200  -1.3200   2.3172   2.3172
     6.2468   6.2468   6.9273   6.9273  12.4548  12.4548  13.2152  13.2152
    16.4961  16.4961  19.1072  19.1072  21.3363  21.3363  21.5684  21.5684
    23.9762  23.9762  24.6449  24.6449  25.3093  25.3093  26.2933  26.2933

          k = 0.6250-0.1250 0.8750 (  5934 PWs)   bands (ev):

  -161.3411-161.3411-161.3406-161.3406-110.2183-110.2183-110.2165-110.2165
  -105.8724-105.8724-105.8679-105.8679-105.8652-105.8652-105.8607-105.8607
   -18.3345 -18.3345 -18.3151 -18.3151 -18.2834 -18.2834 -18.2528 -18.2528
   -17.7516 -17.7516 -17.7159 -17.7159 -17.6832 -17.6832 -17.6532 -17.6532
   -17.5854 -17.5854 -17.5492 -17.5492  -0.4484  -0.4484   1.2954   1.2954
     5.5077   5.5077   6.7186   6.7186  12.9252  12.9252  15.0624  15.0624
    15.9338  15.9338  18.1742  18.1742  19.9322  19.9322  22.8246  22.8246
    23.4152  23.4152  24.5231  24.5231  27.0431  27.0431  27.6219  27.6219

          k = 0.5000 0.0000 0.7500 (  5940 PWs)   bands (ev):

  -161.3418-161.3418-161.3410-161.3410-110.2186-110.2186-110.2161-110.2161
  -105.8727-105.8727-105.8677-105.8677-105.8649-105.8649-105.8607-105.8607
   -18.3356 -18.3356 -18.3129 -18.3129 -18.2858 -18.2858 -18.2518 -18.2518
   -17.7527 -17.7527 -17.7166 -17.7166 -17.6841 -17.6841 -17.6497 -17.6497
   -17.5862 -17.5862 -17.5499 -17.5499  -0.8115  -0.8115   1.7004   1.7004
     5.3303   5.3303   7.1235   7.1235  13.3584  13.3584  15.3513  15.3513
    15.8317  15.8317  17.8333  17.8333  19.2196  19.2196  20.6970  20.6970
    24.5769  24.5769  24.7080  24.7080  26.2129  26.2129  27.8614  27.8614

          k =-0.2500-1.0000 0.0000 (  5934 PWs)   bands (ev):

  -161.3414-161.3414-161.3414-161.3414-110.2170-110.2170-110.2170-110.2170
  -105.8711-105.8711-105.8683-105.8683-105.8639-105.8639-105.8611-105.8611
   -18.3309 -18.3309 -18.3190 -18.3190 -18.2781 -18.2781 -18.2570 -18.2570
   -17.7483 -17.7483 -17.7212 -17.7212 -17.6726 -17.6726 -17.6613 -17.6613
   -17.5810 -17.5810 -17.5518 -17.5518   0.3779   0.3779   0.3963   0.3963
     6.1652   6.1652   6.2326   6.2326  12.5004  12.5004  12.5522  12.5522
    18.6720  18.6720  18.7546  18.7546  22.2039  22.2039  22.3540  22.3540
    24.0329  24.0329  24.1039  24.1039  27.4723  27.4723  27.4829  27.4829

          k =-0.5000-1.0000 0.0000 (  5940 PWs)   bands (ev):

  -161.3386-161.3386-161.3386-161.3386-110.2179-110.2179-110.2179-110.2179
  -105.8726-105.8726-105.8680-105.8680-105.8663-105.8663-105.8616-105.8616
   -18.3346 -18.3346 -18.3172 -18.3172 -18.2826 -18.2826 -18.2519 -18.2519
   -17.7526 -17.7526 -17.7108 -17.7108 -17.6779 -17.6779 -17.6659 -17.6659
   -17.5864 -17.5864 -17.5459 -17.5459   0.4316   0.4316   0.4589   0.4589
     5.7398   5.7398   5.8248   5.8248  15.1898  15.1898  15.3336  15.3336
    15.4287  15.4287  15.4441  15.4441  22.1851  22.1851  22.3351  22.3351
    24.1107  24.1107  24.2158  24.2158  27.6193  27.6193  27.6490  27.6490

     highest occupied, lowest unoccupied level (ev):    10.1541   10.8697

!    total energy              =   -1105.33740815 Ry
     estimated scf accuracy    <       0.00000007 Ry

     convergence has been achieved in   4 iterations

     Using ACE for calculation of exact exchange
     ACE projected onto    64 (nbndproj) and applied to    64 (nbnd) bands

     total energy              =   -1105.33781697 Ry
     Harris-Foulkes estimate   =   -1105.33781702 Ry
     est. exchange err (dexx)  =       0.00040882 Ry
     - averaged Fock potential =      41.66990867 Ry
     + Fock energy (ACE)       =     -20.84788181 Ry

     scf convergence threshold =          4.1E-05 Ry

     EXX: now go back to refine exchange calculation

     total cpu time spent up to now is      381.6 secs

     Self-consistent Calculation

     iteration #  1     ecut=   110.00 Ry     beta= 0.70
     Davidson diagonalization with overlap
     ethr =  6.47E-09,  avg # of iterations =  5.1

     total cpu time spent up to now is      382.3 secs

     End of self-consistent calculation

          k = 0.0000 0.0000 0.0000 (  5961 PWs)   bands (ev):

  -161.3380-161.3380-161.3348-161.3348-110.2263-110.2263-110.2186-110.2186
  -105.8773-105.8773-105.8773-105.8773-105.8678-105.8678-105.8678-105.8678
   -18.3391 -18.3391 -18.3391 -18.3391 -18.2772 -18.2772 -18.2772 -18.2772
   -17.8168 -17.8168 -17.6778 -17.6778 -17.6778 -17.6778 -17.6346 -17.6346
   -17.6346 -17.6346 -17.5686 -17.5686  -4.0099  -4.0099   9.8113   9.8113
    10.1286  10.1286  10.1286  10.1286  11.0371  11.0371  13.0974  13.0974
    13.3196  13.3196  13.3196  13.3196  17.2834  17.2834  20.3281  20.3281
    20.3281  20.3281  21.7036  21.7036  21.7362  21.7362  21.7362  21.7362

          k =-0.1250 0.1250-0.1250 (  5961 PWs)   bands (ev):

  -161.3389-161.3389-161.3360-161.3360-110.2258-110.2258-110.2185-110.2185
  -105.8779-105.8779-105.8757-105.8757-105.8682-105.8682-105.8670-105.8670
   -18.3408 -18.3408 -18.3358 -18.3358 -18.2791 -18.2791 -18.2754 -18.2754
   -17.8100 -17.8100 -17.6887 -17.6887 -17.6829 -17.6829 -17.6287 -17.6287
   -17.6264 -17.6264 -17.5709 -17.5709  -3.8024  -3.8024   7.7633   7.7633
     9.5856   9.5856   9.7914   9.7914  11.8614  11.8614  13.6236  13.6236
    13.7732  13.7732  14.2620  14.2620  18.2553  18.2553  19.3822  19.3822
    19.3842  19.3842  20.9956  20.9956  23.3833  23.3833  23.4043  23.4043

          k =-0.2500 0.2500-0.2500 (  5961 PWs)   bands (ev):

  -161.3366-161.3366-161.3341-161.3341-110.2259-110.2259-110.2198-110.2198
  -105.8775-105.8775-105.8772-105.8772-105.8703-105.8703-105.8670-105.8670
   -18.3429 -18.3429 -18.3304 -18.3304 -18.2865 -18.2865 -18.2709 -18.2709
   -17.7942 -17.7942 -17.7098 -17.7098 -17.6923 -17.6923 -17.6175 -17.6175
   -17.6135 -17.6135 -17.5783 -17.5783  -3.1807  -3.1807   5.0157   5.0157
     8.9805   8.9805   9.1846   9.1846  11.4252  11.4252  14.3274  14.3274
    14.4642  14.4642  16.6363  16.6363  18.8929  18.8929  19.1413  19.1413
    19.1596  19.1596  21.9544  21.9544  26.1323  26.1323  26.1566  26.1566

          k =-0.3750 0.3750-0.3750 (  5951 PWs)   bands (ev):

  -161.3384-161.3384-161.3365-161.3365-110.2244-110.2244-110.2198-110.2198
  -105.8786-105.8786-105.8733-105.8733-105.8693-105.8693-105.8675-105.8675
   -18.3452 -18.3452 -18.3194 -18.3194 -18.2937 -18.2937 -18.2680 -18.2680
   -17.7733 -17.7733 -17.7293 -17.7293 -17.6990 -17.6990 -17.6085 -17.6085
   -17.6028 -17.6028 -17.5866 -17.5866  -2.2642  -2.2642   2.7721   2.7721
     8.5403   8.5403   8.7434   8.7434  11.0420  11.0420  14.4690  14.4690
    14.5724  14.5724  18.1327  18.1327  19.4194  19.4194  20.4163  20.4163
    20.4720  20.4720  24.0424  24.0424  25.9376  25.9376  25.9981  25.9981

          k = 0.5000-0.5000 0.5000 (  5936 PWs)   bands (ev):

  -161.3372-161.3372-161.3356-161.3356-110.2243-110.2243-110.2205-110.2205
  -105.8782-105.8782-105.8734-105.8734-105.8715-105.8715-105.8669-105.8669
   -18.3457 -18.3457 -18.3139 -18.3139 -18.3000 -18.3000 -18.2662 -18.2662
   -17.7608 -17.7608 -17.7413 -17.7413 -17.7014 -17.7014 -17.6051 -17.6051
   -17.5951 -17.5951 -17.5943 -17.5943  -1.6697  -1.6697   1.7312   1.7312
     8.3955   8.3955   8.5988   8.5988  10.9034  10.9034  14.4295  14.4295
    14.5196  14.5196  17.9528  17.9528  21.6343  21.6343  22.2942  22.2942
    22.3951  22.3951  22.5724  22.5724  23.4526  23.4526  23.4669  23.4669

          k = 0.0000 0.2500 0.0000 (  5962 PWs)   bands (ev):

  -161.3392-161.3392-161.3363-161.3363-110.2256-110.2256-110.2185-110.2185
  -105.8775-105.8775-105.8760-105.8760-105.8682-105.8682-105.8668-105.8668
   -18.3393 -18.3393 -18.3368 -18.3368 -18.2796 -18.2796 -18.2750 -18.2750
   -17.8076 -17.8076 -17.6945 -17.6945 -17.6810 -17.6810 -17.6286 -17.6286
   -17.6239 -17.6239 -17.5714 -17.5714  -3.7320  -3.7320   7.7870   7.7870
     9.0696   9.0696   9.1885   9.1885  12.5593  12.5593  13.1003  13.1003
    14.4581  14.4581  14.5107  14.5107  18.1422  18.1422  18.5542  18.5542
    20.5964  20.5964  22.2454  22.2454  22.2595  22.2595  23.0999  23.0999

          k =-0.1250 0.3750-0.1250 (  5957 PWs)   bands (ev):

  -161.3385-161.3385-161.3359-161.3359-110.2256-110.2256-110.2193-110.2193
  -105.8781-105.8781-105.8759-105.8759-105.8700-105.8700-105.8661-105.8661
   -18.3415 -18.3415 -18.3322 -18.3322 -18.2856 -18.2856 -18.2706 -18.2706
   -17.7949 -17.7949 -17.7105 -17.7105 -17.6876 -17.6876 -17.6240 -17.6240
   -17.6127 -17.6127 -17.5753 -17.5753  -3.2435  -3.2435   5.6702   5.6702
     8.4418   8.4418   8.5814   8.5814  12.5649  12.5649  13.4289  13.4289
    15.3814  15.3814  15.6757  15.6757  18.2016  18.2016  19.9173  19.9173
    20.4146  20.4146  21.9796  21.9796  24.2034  24.2034  25.4902  25.4902

          k =-0.2500 0.5000-0.2500 (  5973 PWs)   bands (ev):

  -161.3387-161.3387-161.3368-161.3368-110.2247-110.2247-110.2198-110.2198
  -105.8778-105.8778-105.8750-105.8750-105.8700-105.8700-105.8663-105.8663
   -18.3442 -18.3442 -18.3237 -18.3237 -18.2924 -18.2924 -18.2670 -18.2670
   -17.7762 -17.7762 -17.7264 -17.7264 -17.6956 -17.6956 -17.6234 -17.6234
   -17.6013 -17.6013 -17.5780 -17.5780  -2.3994  -2.3994   3.4035   3.4035
     7.7702   7.7702   8.1493   8.1493  12.3050  12.3050  14.0841  14.0841
    15.5490  15.5490  16.4341  16.4341  19.7516  19.7516  20.4508  20.4508
    21.3225  21.3225  23.5726  23.5726  25.7491  25.7491  26.9319  26.9319

          k = 0.6250-0.3750 0.6250 (  5951 PWs)   bands (ev):

  -161.3382-161.3382-161.3367-161.3367-110.2239-110.2239-110.2203-110.2203
  -105.8777-105.8777-105.8735-105.8735-105.8713-105.8713-105.8662-105.8662
   -18.3453 -18.3453 -18.3162 -18.3162 -18.2992 -18.2992 -18.2642 -18.2642
   -17.7622 -17.7622 -17.7365 -17.7365 -17.7001 -17.7001 -17.6249 -17.6249
   -17.5974 -17.5974 -17.5765 -17.5765  -1.5640  -1.5640   1.8879   1.8879
     7.2638   7.2638   8.1366   8.1366  12.0926  12.0926  14.2620  14.2620
    15.2321  15.2321  18.1694  18.1694  19.8080  19.8080  21.9867  21.9867
    22.3136  22.3136  23.0566  23.0566  23.8234  23.8234  26.6029  26.6029

          k = 0.5000-0.2500 0.5000 (  5952 PWs)   bands (ev):

  -161.3386-161.3386-161.3370-161.3370-110.2240-110.2240-110.2201-110.2201
  -105.8778-105.8778-105.8735-105.8735-105.8706-105.8706-105.8664-105.8664
   -18.3454 -18.3454 -18.3171 -18.3171 -18.2981 -18.2981 -18.2644 -18.2644
   -17.7659 -17.7659 -17.7338 -17.7338 -17.6984 -17.6984 -17.6264 -17.6264
   -17.5962 -17.5962 -17.5774 -17.5774  -1.7913  -1.7913   2.2587   2.2587
     7.0978   7.0978   8.4581   8.4581  12.1306  12.1306  14.4876  14.4876
    14.9364  14.9364  18.4130  18.4130  19.8351  19.8351  19.9376  19.9376
    21.9197  21.9197  23.8072  23.8072  25.5653  25.5653  26.5144  26.5144

          k = 0.3750-0.1250 0.3750 (  5961 PWs)   bands (ev):

  -161.3383-161.3383-161.3361-161.3361-110.2251-110.2251-110.2198-110.2198
  -105.8783-105.8783-105.8752-105.8752-105.8702-105.8702-105.8663-105.8663
   -18.3443 -18.3443 -18.3257 -18.3257 -18.2909 -18.2909 -18.2675 -18.2675
   -17.7830 -17.7830 -17.7213 -17.7213 -17.6923 -17.6923 -17.6264 -17.6264
   -17.6013 -17.6013 -17.5782 -17.5782  -2.7158  -2.7158   4.1166   4.1166
     7.3630   7.3630   9.0445   9.0445  12.3967  12.3967  14.5308  14.5308
    14.7182  14.7182  16.6366  16.6366  18.3696  18.3696  19.8611  19.8611
    21.5003  21.5003  22.9537  22.9537  25.6611  25.6611  26.0731  26.0731

          k = 0.2500 0.0000 0.2500 (  5961 PWs)   bands (ev):

  -161.3391-161.3391-161.3364-161.3364-110.2256-110.2256-110.2189-110.2189
  -105.8781-105.8781-105.8755-105.8755-105.8695-105.8695-105.8661-105.8661
   -18.3418 -18.3418 -18.3327 -18.3327 -18.2842 -18.2842 -18.2715 -18.2715
   -17.8003 -17.8003 -17.7035 -17.7035 -17.6859 -17.6859 -17.6273 -17.6273
   -17.6142 -17.6142 -17.5744 -17.5744  -3.4547  -3.4547   6.3028   6.3028
     8.2479   8.2479   9.6503   9.6503  12.5457  12.5457  13.8275  13.8275
    13.9665  13.9665  15.6787  15.6787  18.2963  18.2963  19.4412  19.4412
    19.5124  19.5124  22.2597  22.2597  22.9513  22.9513  25.8025  25.8025

          k = 0.0000 0.5000 0.0000 (  5982 PWs)   bands (ev):

  -161.3362-161.3362-161.3340-161.3340-110.2257-110.2257-110.2202-110.2202
  -105.8781-105.8781-105.8769-105.8769-105.8694-105.8694-105.8682-105.8682
   -18.3411 -18.3411 -18.3320 -18.3320 -18.2866 -18.2866 -18.2708 -18.2708
   -17.7860 -17.7860 -17.7206 -17.7206 -17.6896 -17.6896 -17.6224 -17.6224
   -17.6114 -17.6114 -17.5745 -17.5745  -2.8803  -2.8803   5.0762   5.0762
     7.7961   7.7961   7.8544   7.8544  11.5906  11.5906  13.5250  13.5250
    16.7731  16.7731  16.7987  16.7987  18.0662  18.0662  21.2019  21.2019
    21.4629  21.4629  23.9150  23.9150  23.9190  23.9190  24.5919  24.5919

          k =-0.1250 0.6250-0.1250 (  5949 PWs)   bands (ev):

  -161.3381-161.3381-161.3364-161.3364-110.2246-110.2246-110.2203-110.2203
  -105.8785-105.8785-105.8750-105.8750-105.8689-105.8689-105.8676-105.8676
   -18.3424 -18.3424 -18.3269 -18.3269 -18.2894 -18.2894 -18.2681 -18.2681
   -17.7704 -17.7704 -17.7307 -17.7307 -17.6933 -17.6933 -17.6326 -17.6326
   -17.6004 -17.6004 -17.5721 -17.5721  -2.1384  -2.1384   3.5074   3.5074
     6.9863   6.9863   7.4226   7.4226  11.8363  11.8363  13.4233  13.4233
    16.6880  16.6880  17.4470  17.4470  20.5082  20.5082  22.0822  22.0822
    22.2639  22.2639  24.0936  24.0936  25.8081  25.8081  26.0980  26.0980

          k = 0.7500-0.2500 0.7500 (  5943 PWs)   bands (ev):

  -161.3360-161.3360-161.3349-161.3349-110.2242-110.2242-110.2214-110.2214
  -105.8786-105.8786-105.8745-105.8745-105.8711-105.8711-105.8676-105.8676
   -18.3447 -18.3447 -18.3224 -18.3224 -18.2945 -18.2945 -18.2639 -18.2639
   -17.7615 -17.7615 -17.7319 -17.7319 -17.6968 -17.6968 -17.6459 -17.6459
   -17.5962 -17.5962 -17.5658 -17.5658  -1.2110  -1.2110   2.0175   2.0175
     6.0044   6.0044   7.4098   7.4098  12.0328  12.0328  15.1232  15.1232
    16.2732  16.2732  17.1647  17.1647  21.1195  21.1195  22.4390  22.4390
    22.9726  22.9726  23.5009  23.5009  24.5380  24.5380  28.0131  28.0131

          k = 0.6250-0.1250 0.6250 (  5943 PWs)   bands (ev):

  -161.3377-161.3377-161.3367-161.3367-110.2238-110.2238-110.2211-110.2211
  -105.8793-105.8793-105.8719-105.8719-105.8714-105.8714-105.8674-105.8674
   -18.3460 -18.3460 -18.3190 -18.3190 -18.2974 -18.2974 -18.2619 -18.2619
   -17.7616 -17.7616 -17.7300 -17.7300 -17.6955 -17.6955 -17.6512 -17.6512
   -17.5962 -17.5962 -17.5631 -17.5631  -1.0196  -1.0196   1.7722   1.7722
     5.5151   5.5151   7.7561   7.7561  12.2819  12.2819  15.9520  15.9520
    16.5921  16.5921  17.8413  17.8413  18.6726  18.6726  19.8967  19.8967
    22.8285  22.8285  25.4623  25.4623  27.2452  27.2452  27.4090  27.4090

          k = 0.5000 0.0000 0.5000 (  5933 PWs)   bands (ev):

  -161.3359-161.3359-161.3344-161.3344-110.2249-110.2249-110.2210-110.2210
  -105.8788-105.8788-105.8748-105.8748-105.8714-105.8714-105.8675-105.8675
   -18.3460 -18.3460 -18.3210 -18.3210 -18.2966 -18.2966 -18.2631 -18.2631
   -17.7694 -17.7694 -17.7302 -17.7302 -17.6921 -17.6921 -17.6426 -17.6426
   -17.5957 -17.5957 -17.5700 -17.5700  -1.9013  -1.9013   2.9903   2.9903
     5.8433   5.8433   8.3989   8.3989  12.7104  12.7104  15.6931  15.6931
    15.9358  15.9358  16.2581  16.2581  18.4272  18.4272  20.5664  20.5664
    23.0791  23.0791  23.6117  23.6117  25.0502  25.0502  27.6335  27.6335

          k = 0.0000 0.7500 0.0000 (  5942 PWs)   bands (ev):

  -161.3384-161.3384-161.3372-161.3372-110.2235-110.2235-110.2205-110.2205
  -105.8765-105.8765-105.8757-105.8757-105.8684-105.8684-105.8677-105.8677
   -18.3380 -18.3380 -18.3297 -18.3297 -18.2853 -18.2853 -18.2714 -18.2714
   -17.7589 -17.7589 -17.7382 -17.7382 -17.6926 -17.6926 -17.6434 -17.6434
   -17.5911 -17.5911 -17.5717 -17.5717  -1.4925  -1.4925   2.5641   2.5641
     6.9316   6.9316   6.9550   6.9550  11.1024  11.1024  12.1830  12.1830
    19.1772  19.1772  19.2478  19.2478  20.5283  20.5283  22.8611  22.8611
    23.6343  23.6343  25.7475  25.7475  25.8413  25.8413  26.6418  26.6418

          k = 0.8750-0.1250 0.8750 (  5935 PWs)   bands (ev):

  -161.3378-161.3378-161.3372-161.3372-110.2228-110.2228-110.2213-110.2213
  -105.8770-105.8770-105.8749-105.8749-105.8696-105.8696-105.8672-105.8672
   -18.3393 -18.3393 -18.3284 -18.3284 -18.2869 -18.2869 -18.2687 -18.2687
   -17.7558 -17.7558 -17.7359 -17.7359 -17.6879 -17.6879 -17.6595 -17.6595
   -17.5891 -17.5891 -17.5664 -17.5664  -0.5702  -0.5702   1.3851   1.3851
     6.1691   6.1691   6.8485   6.8485  11.4539  11.4539  12.5479  12.5479
    19.0693  19.0693  19.4818  19.4818  21.8208  21.8208  22.9220  22.9220
    23.2802  23.2802  24.8027  24.8027  25.6472  25.6472  27.1342  27.1342

          k = 0.7500 0.0000 0.7500 (  5936 PWs)   bands (ev):

  -161.3380-161.3380-161.3376-161.3376-110.2230-110.2230-110.2215-110.2215
  -105.8778-105.8778-105.8741-105.8741-105.8702-105.8702-105.8669-105.8669
   -18.3432 -18.3432 -18.3238 -18.3238 -18.2929 -18.2929 -18.2631 -18.2631
   -17.7599 -17.7599 -17.7263 -17.7263 -17.6900 -17.6900 -17.6666 -17.6666
   -17.5932 -17.5932 -17.5597 -17.5597  -0.1739  -0.1739   1.0075   1.0075
     5.2733   5.2733   7.1380   7.1380  11.7446  11.7446  14.8847  14.8847
    18.3612  18.3612  18.5070  18.5070  19.1863  19.1863  20.6960  20.6960
    24.9670  24.9670  25.8501  25.8501  27.1959  27.1959  27.3697  27.3697

          k = 0.0000-1.0000 0.0000 (  5962 PWs)   bands (ev):

  -161.3364-161.3364-161.3364-161.3364-110.2224-110.2224-110.2224-110.2224
  -105.8764-105.8764-105.8764-105.8764-105.8687-105.8687-105.8687-105.8687
   -18.3341 -18.3341 -18.3341 -18.3341 -18.2781 -18.2781 -18.2781 -18.2781
   -17.7467 -17.7467 -17.7467 -17.7467 -17.6741 -17.6741 -17.6741 -17.6741
   -17.5769 -17.5769 -17.5769 -17.5769   0.3398   0.3398   0.3398   0.3398
     6.6571   6.6571   6.6571   6.6571  11.3020  11.3020  11.3020  11.3020
    20.8595  20.8595  20.8595  20.8595  22.9435  22.9435  22.9435  22.9435
    23.8257  23.8257  23.8257  23.8257  24.8194  24.8194  24.8194  24.8194

          k =-0.2500 0.5000 0.0000 (  5963 PWs)   bands (ev):

  -161.3388-161.3388-161.3367-161.3367-110.2250-110.2250-110.2198-110.2198
  -105.8782-105.8782-105.8754-105.8754-105.8696-105.8696-105.8665-105.8665
   -18.3434 -18.3434 -18.3271 -18.3271 -18.2902 -18.2902 -18.2675 -18.2675
   -17.7807 -17.7807 -17.7236 -17.7236 -17.6907 -17.6907 -17.6296 -17.6296
   -17.6025 -17.6025 -17.5750 -17.5750  -2.6306  -2.6306   4.3105   4.3105
     6.9844   6.9844   8.3661   8.3661  12.9824  12.9824  13.6515  13.6515
    15.3652  15.3652  16.4700  16.4700  19.0033  19.0033  21.1881  21.1881
    21.4524  21.4524  23.3362  23.3362  24.8125  24.8125  26.0670  26.0670

          k = 0.6250-0.3750 0.8750 (  5948 PWs)   bands (ev):

  -161.3379-161.3379-161.3365-161.3365-110.2243-110.2243-110.2206-110.2206
  -105.8780-105.8780-105.8747-105.8747-105.8710-105.8710-105.8663-105.8663
   -18.3449 -18.3449 -18.3216 -18.3216 -18.2956 -18.2956 -18.2635 -18.2635
   -17.7664 -17.7664 -17.7312 -17.7312 -17.6952 -17.6952 -17.6399 -17.6399
   -17.5966 -17.5966 -17.5695 -17.5695  -1.7245  -1.7245   2.6500   2.6500
     6.2115   6.2115   7.8248   7.8248  13.1795  13.1795  14.1523  14.1523
    15.7354  15.7354  17.0876  17.0876  20.3523  20.3523  20.7096  20.7096
    22.5368  22.5368  24.1130  24.1130  25.4869  25.4869  26.5933  26.5933

          k = 0.5000-0.2500 0.7500 (  5936 PWs)   bands (ev):

  -161.3384-161.3384-161.3372-161.3372-110.2237-110.2237-110.2208-110.2208
  -105.8783-105.8783-105.8731-105.8731-105.8710-105.8710-105.8666-105.8666
   -18.3455 -18.3455 -18.3189 -18.3189 -18.2973 -18.2973 -18.2622 -18.2622
   -17.7611 -17.7611 -17.7314 -17.7314 -17.6982 -17.6982 -17.6442 -17.6442
   -17.5966 -17.5966 -17.5655 -17.5655  -1.0951  -1.0951   1.7087   1.7087
     6.0107   6.0107   7.5799   7.5799  13.1310  13.1310  14.0610  14.0610
    16.7790  16.7790  18.0264  18.0264  18.6359  18.6359  21.8642  21.8642
    22.5995  22.5995  23.2528  23.2528  26.7589  26.7589  27.7317  27.7317

          k = 0.7500-0.2500 1.0000 (  5957 PWs)   bands (ev):

  -161.3383-161.3383-161.3372-161.3372-110.2237-110.2237-110.2208-110.2208
  -105.8776-105.8776-105.8748-105.8748-105.8696-105.8696-105.8670-105.8670
   -18.3424 -18.3424 -18.3258 -18.3258 -18.2909 -18.2909 -18.2657 -18.2657
   -17.7613 -17.7613 -17.7331 -17.7331 -17.6932 -17.6932 -17.6480 -17.6480
   -17.5952 -17.5952 -17.5663 -17.5663  -1.3108  -1.3108   2.3289   2.3289
     6.2412   6.2412   6.9173   6.9173  12.4657  12.4657  13.2272  13.2272
    16.5030  16.5030  19.1137  19.1137  21.3384  21.3384  21.5697  21.5697
    23.9806  23.9806  24.6449  24.6449  25.3077  25.3077  26.2883  26.2883

          k = 0.6250-0.1250 0.8750 (  5934 PWs)   bands (ev):

  -161.3375-161.3375-161.3369-161.3369-110.2233-110.2233-110.2215-110.2215
  -105.8783-105.8783-105.8738-105.8738-105.8712-105.8712-105.8667-105.8667
   -18.3439 -18.3439 -18.3244 -18.3244 -18.2929 -18.2929 -18.2623 -18.2623
   -17.7608 -17.7608 -17.7254 -17.7254 -17.6928 -17.6928 -17.6628 -17.6628
   -17.5953 -17.5953 -17.5592 -17.5592  -0.4388  -0.4388   1.3059   1.3059
     5.5056   5.5056   6.7090   6.7090  12.9362  12.9362  15.0720  15.0720
    15.9400  15.9400  18.1817  18.1817  19.9300  19.9300  22.8254  22.8254
    23.4188  23.4188  24.5248  24.5248  27.0437  27.0437  27.6184  27.6184

          k = 0.5000 0.0000 0.7500 (  5940 PWs)   bands (ev):

  -161.3382-161.3382-161.3373-161.3373-110.2236-110.2236-110.2211-110.2211
  -105.8785-105.8785-105.8736-105.8736-105.8709-105.8709-105.8666-105.8666
   -18.3450 -18.3450 -18.3222 -18.3222 -18.2953 -18.2953 -18.2613 -18.2613
   -17.7620 -17.7620 -17.7262 -17.7262 -17.6936 -17.6936 -17.6593 -17.6593
   -17.5961 -17.5961 -17.5599 -17.5599  -0.8022  -0.8022   1.7112   1.7112
     5.3296   5.3296   7.1124   7.1124  13.3717  13.3717  15.3587  15.3587
    15.8397  15.8397  17.8410  17.8410  19.2176  19.2176  20.6944  20.6944
    24.5816  24.5816  24.7099  24.7099  26.2138  26.2138  27.8620  27.8620

          k =-0.2500-1.0000 0.0000 (  5934 PWs)   bands (ev):

  -161.3378-161.3378-161.3378-161.3378-110.2220-110.2220-110.2220-110.2220
  -105.8771-105.8771-105.8743-105.8743-105.8699-105.8699-105.8670-105.8670
   -18.3403 -18.3403 -18.3283 -18.3283 -18.2876 -18.2876 -18.2665 -18.2665
   -17.7577 -17.7577 -17.7307 -17.7307 -17.6823 -17.6823 -17.6710 -17.6710
   -17.5909 -17.5909 -17.5618 -17.5618   0.3880   0.3880   0.4064   0.4064
     6.1589   6.1589   6.2258   6.2258  12.5111  12.5111  12.5624  12.5624
    18.6787  18.6787  18.7609  18.7609  22.2072  22.2072  22.3563  22.3563
    24.0336  24.0336  24.1044  24.1044  27.4687  27.4687  27.4796  27.4796

          k =-0.5000-1.0000 0.0000 (  5940 PWs)   bands (ev):

  -161.3352-161.3352-161.3352-161.3352-110.2229-110.2229-110.2229-110.2229
  -105.8786-105.8786-105.8739-105.8739-105.8723-105.8723-105.8676-105.8676
   -18.3440 -18.3440 -18.3265 -18.3265 -18.2921 -18.2921 -18.2614 -18.2614
   -17.7618 -17.7618 -17.7204 -17.7204 -17.6876 -17.6876 -17.6754 -17.6754
   -17.5963 -17.5963 -17.5559 -17.5559   0.4415   0.4415   0.4687   0.4687
     5.7350   5.7350   5.8194   5.8194  15.2039  15.2039  15.3475  15.3475
    15.4286  15.4286  15.4451  15.4451  22.1883  22.1883  22.3375  22.3375
    24.1115  24.1115  24.2165  24.2165  27.6172  27.6172  27.6468  27.6468

     highest occupied, lowest unoccupied level (ev):    10.1286   10.9034

!    total energy              =   -1105.33786210 Ry
     estimated scf accuracy    <       0.00000612 Ry

     convergence has been achieved in   1 iterations

     Using ACE for calculation of exact exchange
     ACE projected onto    64 (nbndproj) and applied to    64 (nbnd) bands

     total energy              =   -1105.33786824 Ry
     Harris-Foulkes estimate   =   -1105.33787072 Ry
     est. exchange err (dexx)  =       0.00000614 Ry
     - averaged Fock potential =      41.69844606 Ry
     + Fock energy (ACE)       =     -20.85057039 Ry

     scf convergence threshold =          6.1E-07 Ry

     EXX: now go back to refine exchange calculation

     total cpu time spent up to now is      568.6 secs

     Self-consistent Calculation

     iteration #  1     ecut=   110.00 Ry     beta= 0.70
     Davidson diagonalization with overlap
     ethr =  6.47E-09,  avg # of iterations =  3.8

     total cpu time spent up to now is      569.2 secs

     total energy              =   -1105.33786902 Ry
     estimated scf accuracy    <       0.00000082 Ry

     iteration #  2     ecut=   110.00 Ry     beta= 0.70
     Davidson diagonalization with overlap
     ethr =  1.86E-09,  avg # of iterations =  2.0

     total cpu time spent up to now is      569.7 secs

     End of self-consistent calculation

          k = 0.0000 0.0000 0.0000 (  5961 PWs)   bands (ev):

  -161.3320-161.3320-161.3288-161.3288-110.2213-110.2213-110.2135-110.2135
  -105.8724-105.8724-105.8724-105.8724-105.8630-105.8630-105.8630-105.8630
   -18.3361 -18.3361 -18.3361 -18.3361 -18.2742 -18.2742 -18.2742 -18.2742
   -17.8138 -17.8138 -17.6749 -17.6749 -17.6749 -17.6749 -17.6316 -17.6316
   -17.6316 -17.6316 -17.5657 -17.5657  -4.0094  -4.0094   9.8090   9.8090
    10.1260  10.1260  10.1260  10.1260  11.0431  11.0431  13.0983  13.0983
    13.3203  13.3203  13.3203  13.3203  17.2860  17.2860  20.3269  20.3269
    20.3269  20.3269  21.7042  21.7042  21.7368  21.7368  21.7368  21.7368

          k =-0.1250 0.1250-0.1250 (  5961 PWs)   bands (ev):

  -161.3329-161.3329-161.3299-161.3299-110.2208-110.2208-110.2135-110.2135
  -105.8731-105.8731-105.8709-105.8709-105.8633-105.8633-105.8621-105.8621
   -18.3378 -18.3378 -18.3328 -18.3328 -18.2761 -18.2761 -18.2724 -18.2724
   -17.8070 -17.8070 -17.6858 -17.6858 -17.6799 -17.6799 -17.6257 -17.6257
   -17.6235 -17.6235 -17.5680 -17.5680  -3.8019  -3.8019   7.7630   7.7630
     9.5833   9.5833   9.7889   9.7889  11.8647  11.8647  13.6246  13.6246
    13.7741  13.7741  14.2628  14.2628  18.2577  18.2577  19.3816  19.3816
    19.3835  19.3835  20.9968  20.9968  23.3834  23.3834  23.4044  23.4044

          k =-0.2500 0.2500-0.2500 (  5961 PWs)   bands (ev):

  -161.3307-161.3307-161.3282-161.3282-110.2209-110.2209-110.2148-110.2148
  -105.8727-105.8727-105.8723-105.8723-105.8654-105.8654-105.8622-105.8622
   -18.3399 -18.3399 -18.3273 -18.3273 -18.2835 -18.2835 -18.2679 -18.2679
   -17.7913 -17.7913 -17.7068 -17.7068 -17.6893 -17.6893 -17.6145 -17.6145
   -17.6106 -17.6106 -17.5753 -17.5753  -3.1802  -3.1802   5.0163   5.0163
     8.9786   8.9786   9.1825   9.1825  11.4284  11.4284  14.3279  14.3279
    14.4645  14.4645  16.6377  16.6377  18.8948  18.8948  19.1408  19.1408
    19.1591  19.1591  21.9559  21.9559  26.1322  26.1322  26.1565  26.1565

          k =-0.3750 0.3750-0.3750 (  5951 PWs)   bands (ev):

  -161.3324-161.3324-161.3305-161.3305-110.2194-110.2194-110.2148-110.2148
  -105.8738-105.8738-105.8685-105.8685-105.8644-105.8644-105.8626-105.8626
   -18.3422 -18.3422 -18.3164 -18.3164 -18.2907 -18.2907 -18.2650 -18.2650
   -17.7703 -17.7703 -17.7263 -17.7263 -17.6961 -17.6961 -17.6055 -17.6055
   -17.5999 -17.5999 -17.5837 -17.5837  -2.2637  -2.2637   2.7726   2.7726
     8.5386   8.5386   8.7415   8.7415  11.0454  11.0454  14.4695  14.4695
    14.5728  14.5728  18.1344  18.1344  19.4210  19.4210  20.4159  20.4159
    20.4716  20.4716  24.0440  24.0440  25.9372  25.9372  25.9977  25.9977

          k = 0.5000-0.5000 0.5000 (  5936 PWs)   bands (ev):

  -161.3312-161.3312-161.3296-161.3296-110.2193-110.2193-110.2154-110.2154
  -105.8734-105.8734-105.8686-105.8686-105.8666-105.8666-105.8620-105.8620
   -18.3427 -18.3427 -18.3109 -18.3109 -18.2970 -18.2970 -18.2632 -18.2632
   -17.7579 -17.7579 -17.7383 -17.7383 -17.6985 -17.6985 -17.6022 -17.6022
   -17.5922 -17.5922 -17.5913 -17.5913  -1.6691  -1.6691   1.7317   1.7317
     8.3937   8.3937   8.5967   8.5967  10.9067  10.9067  14.4298  14.4298
    14.5199  14.5199  17.9546  17.9546  21.6359  21.6359  22.2943  22.2943
    22.3952  22.3952  22.5740  22.5740  23.4518  23.4518  23.4662  23.4662

          k = 0.0000 0.2500 0.0000 (  5962 PWs)   bands (ev):

  -161.3331-161.3331-161.3302-161.3302-110.2206-110.2206-110.2135-110.2135
  -105.8726-105.8726-105.8712-105.8712-105.8634-105.8634-105.8619-105.8619
   -18.3363 -18.3363 -18.3338 -18.3338 -18.2766 -18.2766 -18.2720 -18.2720
   -17.8047 -17.8047 -17.6916 -17.6916 -17.6780 -17.6780 -17.6256 -17.6256
   -17.6209 -17.6209 -17.5684 -17.5684  -3.7314  -3.7314   7.7875   7.7875
     9.0675   9.0675   9.1863   9.1863  12.5602  12.5602  13.1030  13.1030
    14.4587  14.4587  14.5113  14.5113  18.1420  18.1420  18.5567  18.5567
    20.5953  20.5953  22.2461  22.2461  22.2603  22.2603  23.1006  23.1006

          k =-0.1250 0.3750-0.1250 (  5957 PWs)   bands (ev):

  -161.3324-161.3324-161.3299-161.3299-110.2206-110.2206-110.2143-110.2143
  -105.8732-105.8732-105.8711-105.8711-105.8651-105.8651-105.8613-105.8613
   -18.3385 -18.3385 -18.3291 -18.3291 -18.2826 -18.2826 -18.2676 -18.2676
   -17.7919 -17.7919 -17.7076 -17.7076 -17.6847 -17.6847 -17.6210 -17.6210
   -17.6097 -17.6097 -17.5723 -17.5723  -3.2429  -3.2429   5.6711   5.6711
     8.4400   8.4400   8.5793   8.5793  12.5660  12.5660  13.4312  13.4312
    15.3819  15.3819  15.6761  15.6761  18.2019  18.2019  19.9192  19.9192
    20.4137  20.4137  21.9808  21.9808  24.2036  24.2036  25.4907  25.4907

          k =-0.2500 0.5000-0.2500 (  5973 PWs)   bands (ev):

  -161.3327-161.3327-161.3308-161.3308-110.2196-110.2196-110.2148-110.2148
  -105.8729-105.8729-105.8702-105.8702-105.8652-105.8652-105.8615-105.8615
   -18.3412 -18.3412 -18.3207 -18.3207 -18.2894 -18.2894 -18.2640 -18.2640
   -17.7733 -17.7733 -17.7235 -17.7235 -17.6927 -17.6927 -17.6205 -17.6205
   -17.5984 -17.5984 -17.5750 -17.5750  -2.3988  -2.3988   3.4044   3.4044
     7.7687   7.7687   8.1474   8.1474  12.3069  12.3069  14.0852  14.0852
    15.5494  15.5494  16.4348  16.4348  19.7533  19.7533  20.4511  20.4511
    21.3220  21.3220  23.5742  23.5742  25.7487  25.7487  26.9320  26.9320

          k = 0.6250-0.3750 0.6250 (  5951 PWs)   bands (ev):

  -161.3322-161.3322-161.3307-161.3307-110.2189-110.2189-110.2153-110.2153
  -105.8728-105.8728-105.8686-105.8686-105.8664-105.8664-105.8614-105.8614
   -18.3423 -18.3423 -18.3132 -18.3132 -18.2962 -18.2962 -18.2612 -18.2612
   -17.7593 -17.7593 -17.7335 -17.7335 -17.6972 -17.6972 -17.6220 -17.6220
   -17.5944 -17.5944 -17.5735 -17.5735  -1.5633  -1.5633   1.8885   1.8885
     7.2625   7.2625   8.1347   8.1347  12.0949  12.0949  14.2627  14.2627
    15.2327  15.2327  18.1705  18.1705  19.8089  19.8089  21.9878  21.9878
    22.3136  22.3136  23.0575  23.0575  23.8228  23.8228  26.6030  26.6030

          k = 0.5000-0.2500 0.5000 (  5952 PWs)   bands (ev):

  -161.3325-161.3325-161.3309-161.3309-110.2189-110.2189-110.2151-110.2151
  -105.8730-105.8730-105.8686-105.8686-105.8658-105.8658-105.8616-105.8616
   -18.3424 -18.3424 -18.3141 -18.3141 -18.2951 -18.2951 -18.2615 -18.2615
   -17.7629 -17.7629 -17.7308 -17.7308 -17.6955 -17.6955 -17.6235 -17.6235
   -17.5932 -17.5932 -17.5745 -17.5745  -1.7906  -1.7906   2.2594   2.2594
     7.0965   7.0965   8.4561   8.4561  12.1331  12.1331  14.4881  14.4881
    14.9370  14.9370  18.4142  18.4142  19.8363  19.8363  19.9373  19.9373
    21.9203  21.9203  23.8075  23.8075  25.5659  25.5659  26.5141  26.5141

          k = 0.3750-0.1250 0.3750 (  5961 PWs)   bands (ev):

  -161.3322-161.3322-161.3301-161.3301-110.2201-110.2201-110.2147-110.2147
  -105.8734-105.8734-105.8704-105.8704-105.8654-105.8654-105.8615-105.8615
   -18.3413 -18.3413 -18.3227 -18.3227 -18.2879 -18.2879 -18.2646 -18.2646
   -17.7801 -17.7801 -17.7183 -17.7183 -17.6893 -17.6893 -17.6235 -17.6235
   -17.5983 -17.5983 -17.5753 -17.5753  -2.7152  -2.7152   4.1176   4.1176
     7.3613   7.3613   9.0421   9.0421  12.3995  12.3995  14.5317  14.5317
    14.7184  14.7184  16.6378  16.6378  18.3691  18.3691  19.8628  19.8628
    21.5004  21.5004  22.9547  22.9547  25.6615  25.6615  26.0728  26.0728

          k = 0.2500 0.0000 0.2500 (  5961 PWs)   bands (ev):

  -161.3331-161.3331-161.3304-161.3304-110.2206-110.2206-110.2139-110.2139
  -105.8732-105.8732-105.8706-105.8706-105.8646-105.8646-105.8613-105.8613
   -18.3388 -18.3388 -18.3297 -18.3297 -18.2812 -18.2812 -18.2685 -18.2685
   -17.7974 -17.7974 -17.7005 -17.7005 -17.6830 -17.6830 -17.6244 -17.6244
   -17.6113 -17.6113 -17.5714 -17.5714  -3.4541  -3.4541   6.3035   6.3035
     8.2458   8.2458   9.6475   9.6475  12.5487  12.5487  13.8287  13.8287
    13.9670  13.9670  15.6795  15.6795  18.2959  18.2959  19.4434  19.4434
    19.5126  19.5126  22.2598  22.2598  22.9519  22.9519  25.8025  25.8025

          k = 0.0000 0.5000 0.0000 (  5982 PWs)   bands (ev):

  -161.3303-161.3303-161.3280-161.3280-110.2207-110.2207-110.2152-110.2152
  -105.8732-105.8732-105.8721-105.8721-105.8645-105.8645-105.8633-105.8633
   -18.3381 -18.3381 -18.3290 -18.3290 -18.2836 -18.2836 -18.2678 -18.2678
   -17.7830 -17.7830 -17.7176 -17.7176 -17.6866 -17.6866 -17.6195 -17.6195
   -17.6085 -17.6085 -17.5716 -17.5716  -2.8797  -2.8797   5.0774   5.0774
     7.7945   7.7945   7.8528   7.8528  11.5921  11.5921  13.5267  13.5267
    16.7733  16.7733  16.7988  16.7988  18.0670  18.0670  21.2038  21.2038
    21.4618  21.4618  23.9155  23.9155  23.9194  23.9194  24.5930  24.5930

          k =-0.1250 0.6250-0.1250 (  5949 PWs)   bands (ev):

  -161.3320-161.3320-161.3303-161.3303-110.2195-110.2195-110.2153-110.2153
  -105.8736-105.8736-105.8701-105.8701-105.8641-105.8641-105.8628-105.8628
[...]

          k = 0.5000-0.5000 0.5000 (  5936 PWs)   bands (ev):

  -161.3287-161.3287-161.3271-161.3271-110.2170-110.2170-110.2132-110.2132
  -105.8712-105.8712-105.8663-105.8663-105.8644-105.8644-105.8598-105.8598
   -18.3410 -18.3410 -18.3092 -18.3092 -18.2953 -18.2953 -18.2615 -18.2615
   -17.7562 -17.7562 -17.7367 -17.7367 -17.6968 -17.6968 -17.6005 -17.6005
   -17.5905 -17.5905 -17.5896 -17.5896  -1.6687  -1.6687   1.7320   1.7320
     8.3937   8.3937   8.5967   8.5967  10.9075  10.9075  14.4300  14.4300
    14.5201  14.5201  17.9549  17.9549  21.6363  21.6363  22.2945  22.2945
    22.3953  22.3953  22.5746  22.5746  23.4519  23.4519  23.4662  23.4662

          k = 0.0000 0.2500 0.0000 (  5962 PWs)   bands (ev):

  -161.3306-161.3306-161.3277-161.3277-110.2184-110.2184-110.2112-110.2112
  -105.8704-105.8704-105.8690-105.8690-105.8611-105.8611-105.8597-105.8597
   -18.3346 -18.3346 -18.3321 -18.3321 -18.2750 -18.2750 -18.2703 -18.2703
   -17.8030 -17.8030 -17.6899 -17.6899 -17.6764 -17.6764 -17.6239 -17.6239
   -17.6192 -17.6192 -17.5667 -17.5667  -3.7310  -3.7310   7.7878   7.7878
     9.0675   9.0675   9.1862   9.1862  12.5604  12.5604  13.1037  13.1037
    14.4591  14.4591  14.5116  14.5116  18.1420  18.1420  18.5572  18.5572
    20.5953  20.5953  22.2462  22.2462  22.2604  22.2604  23.1008  23.1008

          k =-0.1250 0.3750-0.1250 (  5957 PWs)   bands (ev):

  -161.3299-161.3299-161.3273-161.3273-110.2183-110.2183-110.2120-110.2120
  -105.8710-105.8710-105.8689-105.8689-105.8629-105.8629-105.8591-105.8591
   -18.3369 -18.3369 -18.3275 -18.3275 -18.2809 -18.2809 -18.2660 -18.2660
   -17.7903 -17.7903 -17.7059 -17.7059 -17.6830 -17.6830 -17.6193 -17.6193
   -17.6080 -17.6080 -17.5706 -17.5706  -3.2425  -3.2425   5.6716   5.6716
     8.4399   8.4399   8.5791   8.5791  12.5664  12.5664  13.4319  13.4319
    15.3823  15.3823  15.6764  15.6764  18.2021  18.2021  19.9196  19.9196
    20.4137  20.4137  21.9811  21.9811  24.2038  24.2038  25.4908  25.4908

          k =-0.2500 0.5000-0.2500 (  5973 PWs)   bands (ev):

  -161.3301-161.3301-161.3282-161.3282-110.2174-110.2174-110.2125-110.2125
  -105.8707-105.8707-105.8679-105.8679-105.8630-105.8630-105.8592-105.8592
   -18.3395 -18.3395 -18.3190 -18.3190 -18.2877 -18.2877 -18.2623 -18.2623
   -17.7716 -17.7716 -17.7218 -17.7218 -17.6910 -17.6910 -17.6188 -17.6188
   -17.5967 -17.5967 -17.5733 -17.5733  -2.3984  -2.3984   3.4048   3.4048
     7.7687   7.7687   8.1474   8.1474  12.3075  12.3075  14.0856  14.0856
    15.5497  15.5497  16.4351  16.4351  19.7536  19.7536  20.4513  20.4513
    21.3221  21.3221  23.5746  23.5746  25.7488  25.7488  26.9322  26.9322

          k = 0.6250-0.3750 0.6250 (  5951 PWs)   bands (ev):

  -161.3296-161.3296-161.3281-161.3281-110.2166-110.2166-110.2130-110.2130
  -105.8706-105.8706-105.8664-105.8664-105.8642-105.8642-105.8592-105.8592
   -18.3407 -18.3407 -18.3115 -18.3115 -18.2945 -18.2945 -18.2595 -18.2595
   -17.7576 -17.7576 -17.7318 -17.7318 -17.6955 -17.6955 -17.6203 -17.6203
   -17.5928 -17.5928 -17.5719 -17.5719  -1.5629  -1.5629   1.8889   1.8889
     7.2625   7.2625   8.1347   8.1347  12.0955  12.0955  14.2629  14.2629
    15.2330  15.2330  18.1708  18.1708  19.8092  19.8092  21.9881  21.9881
    22.3138  22.3138  23.0579  23.0579  23.8229  23.8229  26.6032  26.6032

          k = 0.5000-0.2500 0.5000 (  5952 PWs)   bands (ev):

  -161.3299-161.3299-161.3284-161.3284-110.2167-110.2167-110.2128-110.2128
  -105.8707-105.8707-105.8664-105.8664-105.8636-105.8636-105.8594-105.8594
   -18.3407 -18.3407 -18.3124 -18.3124 -18.2935 -18.2935 -18.2598 -18.2598
   -17.7613 -17.7613 -17.7292 -17.7292 -17.6938 -17.6938 -17.6218 -17.6218
   -17.5915 -17.5915 -17.5728 -17.5728  -1.7903  -1.7903   2.2597   2.2597
     7.0965   7.0965   8.4561   8.4561  12.1337  12.1337  14.4883  14.4883
    14.9374  14.9374  18.4146  18.4146  19.8367  19.8367  19.9375  19.9375
    21.9206  21.9206  23.8078  23.8078  25.5661  25.5661  26.5142  26.5142

          k = 0.3750-0.1250 0.3750 (  5961 PWs)   bands (ev):

  -161.3297-161.3297-161.3275-161.3275-110.2179-110.2179-110.2125-110.2125
  -105.8712-105.8712-105.8681-105.8681-105.8631-105.8631-105.8593-105.8593
   -18.3396 -18.3396 -18.3210 -18.3210 -18.2862 -18.2862 -18.2629 -18.2629
   -17.7784 -17.7784 -17.7166 -17.7166 -17.6876 -17.6876 -17.6218 -17.6218
   -17.5967 -17.5967 -17.5736 -17.5736  -2.7149  -2.7149   4.1180   4.1180
     7.3612   7.3612   9.0421   9.0421  12.4001  12.4001  14.5321  14.5321
    14.7186  14.7186  16.6382  16.6382  18.3692  18.3692  19.8632  19.8632
    21.5006  21.5006  22.9550  22.9550  25.6616  25.6616  26.0730  26.0730

          k = 0.2500 0.0000 0.2500 (  5961 PWs)   bands (ev):

  -161.3305-161.3305-161.3278-161.3278-110.2183-110.2183-110.2116-110.2116
  -105.8710-105.8710-105.8684-105.8684-105.8624-105.8624-105.8591-105.8591
   -18.3371 -18.3371 -18.3280 -18.3280 -18.2795 -18.2795 -18.2668 -18.2668
   -17.7957 -17.7957 -17.6989 -17.6989 -17.6813 -17.6813 -17.6227 -17.6227
   -17.6096 -17.6096 -17.5697 -17.5697  -3.4538  -3.4538   6.3039   6.3039
     8.2456   8.2456   9.6474   9.6474  12.5494  12.5494  13.8291  13.8291
    13.9673  13.9673  15.6799  15.6799  18.2959  18.2959  19.4438  19.4438
    19.5127  19.5127  22.2598  22.2598  22.9520  22.9520  25.8026  25.8026

          k = 0.0000 0.5000 0.0000 (  5982 PWs)   bands (ev):

  -161.3277-161.3277-161.3255-161.3255-110.2185-110.2185-110.2129-110.2129
  -105.8710-105.8710-105.8698-105.8698-105.8623-105.8623-105.8611-105.8611
   -18.3364 -18.3364 -18.3273 -18.3273 -18.2819 -18.2819 -18.2661 -18.2661
   -17.7813 -17.7813 -17.7160 -17.7160 -17.6849 -17.6849 -17.6178 -17.6178
   -17.6068 -17.6068 -17.5699 -17.5699  -2.8794  -2.8794   5.0779   5.0779
     7.7946   7.7946   7.8528   7.8528  11.5924  11.5924  13.5271  13.5271
    16.7736  16.7736  16.7991  16.7991  18.0673  18.0673  21.2042  21.2042
    21.4618  21.4618  23.9155  23.9155  23.9195  23.9195  24.5931  24.5931

          k =-0.1250 0.6250-0.1250 (  5949 PWs)   bands (ev):

  -161.3294-161.3294-161.3278-161.3278-110.2173-110.2173-110.2130-110.2130
  -105.8714-105.8714-105.8679-105.8679-105.8619-105.8619-105.8605-105.8605
   -18.3377 -18.3377 -18.3222 -18.3222 -18.2847 -18.2847 -18.2634 -18.2634
   -17.7658 -17.7658 -17.7261 -17.7261 -17.6887 -17.6887 -17.6279 -17.6279
   -17.5957 -17.5957 -17.5674 -17.5674  -2.1375  -2.1375   3.5090   3.5090
     6.9844   6.9844   7.4212   7.4212  11.8384  11.8384  13.4255  13.4255
    16.6888  16.6888  17.4476  17.4476  20.5092  20.5092  22.0840  22.0840
    22.2631  22.2631  24.0949  24.0949  25.8078  25.8078  26.0984  26.0984

          k = 0.7500-0.2500 0.7500 (  5943 PWs)   bands (ev):

  -161.3274-161.3274-161.3263-161.3263-110.2169-110.2169-110.2142-110.2142
  -105.8715-105.8715-105.8674-105.8674-105.8641-105.8641-105.8606-105.8606
   -18.3400 -18.3400 -18.3178 -18.3178 -18.2899 -18.2899 -18.2592 -18.2592
   -17.7570 -17.7570 -17.7272 -17.7272 -17.6922 -17.6922 -17.6413 -17.6413
   -17.5916 -17.5916 -17.5612 -17.5612  -1.2099  -1.2099   2.0187   2.0187
     6.0037   6.0037   7.4083   7.4083  12.0347  12.0347  15.1248  15.1248
    16.2742  16.2742  17.1650  17.1650  21.1209  21.1209  22.4389  22.4389
    22.9741  22.9741  23.5019  23.5019  24.5374  24.5374  28.0141  28.0141

          k = 0.6250-0.1250 0.6250 (  5943 PWs)   bands (ev):

  -161.3291-161.3291-161.3281-161.3281-110.2165-110.2165-110.2138-110.2138
  -105.8722-105.8722-105.8649-105.8649-105.8644-105.8644-105.8603-105.8603
   -18.3413 -18.3413 -18.3143 -18.3143 -18.2927 -18.2927 -18.2572 -18.2572
   -17.7570 -17.7570 -17.7254 -17.7254 -17.6909 -17.6909 -17.6466 -17.6466
   -17.5915 -17.5915 -17.5585 -17.5585  -1.0186  -1.0186   1.7735   1.7735
     5.5146   5.5146   7.7545   7.7545  12.2841  12.2841  15.9536  15.9536
    16.5929  16.5929  17.8424  17.8424  18.6734  18.6734  19.8962  19.8962
    22.8298  22.8298  25.4638  25.4638  27.2450  27.2450  27.4094  27.4094

          k = 0.5000 0.0000 0.5000 (  5933 PWs)   bands (ev):

  -161.3274-161.3274-161.3258-161.3258-110.2176-110.2176-110.2137-110.2137
  -105.8717-105.8717-105.8677-105.8677-105.8643-105.8643-105.8604-105.8604
   -18.3413 -18.3413 -18.3163 -18.3163 -18.2919 -18.2919 -18.2584 -18.2584
   -17.7648 -17.7648 -17.7256 -17.7256 -17.6875 -17.6875 -17.6380 -17.6380
   -17.5910 -17.5910 -17.5654 -17.5654  -1.9003  -1.9003   2.9917   2.9917
     5.8426   5.8426   8.3970   8.3970  12.7126  12.7126  15.6939  15.6939
    15.9367  15.9367  16.2598  16.2598  18.4265  18.4265  20.5678  20.5678
    23.0804  23.0804  23.6124  23.6124  25.0503  25.0503  27.6341  27.6341

          k = 0.0000 0.7500 0.0000 (  5942 PWs)   bands (ev):

  -161.3297-161.3297-161.3286-161.3286-110.2162-110.2162-110.2133-110.2133
  -105.8694-105.8694-105.8687-105.8687-105.8613-105.8613-105.8606-105.8606
   -18.3334 -18.3334 -18.3250 -18.3250 -18.2807 -18.2807 -18.2667 -18.2667
   -17.7543 -17.7543 -17.7336 -17.7336 -17.6879 -17.6879 -17.6387 -17.6387
   -17.5865 -17.5865 -17.5671 -17.5671  -1.4917  -1.4917   2.5654   2.5654
     6.9304   6.9304   6.9537   6.9537  11.1047  11.1047  12.1849  12.1849
    19.1779  19.1779  19.2484  19.2484  20.5298  20.5298  22.8601  22.8601
    23.6364  23.6364  25.7478  25.7478  25.8413  25.8413  26.6422  26.6422

          k = 0.8750-0.1250 0.8750 (  5935 PWs)   bands (ev):

  -161.3292-161.3292-161.3286-161.3286-110.2156-110.2156-110.2141-110.2141
  -105.8699-105.8699-105.8678-105.8678-105.8625-105.8625-105.8601-105.8601
   -18.3347 -18.3347 -18.3237 -18.3237 -18.2823 -18.2823 -18.2640 -18.2640
   -17.7512 -17.7512 -17.7313 -17.7313 -17.6833 -17.6833 -17.6548 -17.6548
   -17.5845 -17.5845 -17.5617 -17.5617  -0.5692  -0.5692   1.3864   1.3864
     6.1674   6.1674   6.8471   6.8471  11.4560  11.4560  12.5499  12.5499
    19.0703  19.0703  19.4826  19.4826  21.8222  21.8222  22.9218  22.9218
    23.2817  23.2817  24.8019  24.8019  25.6482  25.6482  27.1347  27.1347

          k = 0.7500 0.0000 0.7500 (  5936 PWs)   bands (ev):

  -161.3294-161.3294-161.3289-161.3289-110.2157-110.2157-110.2142-110.2142
  -105.8708-105.8708-105.8670-105.8670-105.8631-105.8631-105.8598-105.8598
   -18.3385 -18.3385 -18.3191 -18.3191 -18.2882 -18.2882 -18.2584 -18.2584
   -17.7553 -17.7553 -17.7217 -17.7217 -17.6854 -17.6854 -17.6620 -17.6620
   -17.5886 -17.5886 -17.5551 -17.5551  -0.1729  -0.1729   1.0086   1.0086
     5.2728   5.2728   7.1366   7.1366  11.7467  11.7467  14.8861  14.8861
    18.3629  18.3629  18.5079  18.5079  19.1868  19.1868  20.6954  20.6954
    24.9689  24.9689  25.8512  25.8512  27.1961  27.1961  27.3695  27.3695

          k = 0.0000-1.0000 0.0000 (  5962 PWs)   bands (ev):

  -161.3279-161.3279-161.3279-161.3279-110.2151-110.2151-110.2151-110.2151
  -105.8693-105.8693-105.8693-105.8693-105.8616-105.8616-105.8616-105.8616
   -18.3295 -18.3295 -18.3295 -18.3295 -18.2735 -18.2735 -18.2735 -18.2735
   -17.7421 -17.7421 -17.7421 -17.7421 -17.6694 -17.6694 -17.6694 -17.6694
   -17.5722 -17.5722 -17.5722 -17.5722   0.3410   0.3410   0.3410   0.3410
     6.6557   6.6557   6.6557   6.6557  11.3039  11.3039  11.3039  11.3039
    20.8608  20.8608  20.8608  20.8608  22.9454  22.9454  22.9454  22.9454
    23.8254  23.8254  23.8254  23.8254  24.8185  24.8185  24.8185  24.8185

          k =-0.2500 0.5000 0.0000 (  5963 PWs)   bands (ev):

  -161.3301-161.3301-161.3281-161.3281-110.2177-110.2177-110.2125-110.2125
  -105.8711-105.8711-105.8683-105.8683-105.8625-105.8625-105.8594-105.8594
   -18.3387 -18.3387 -18.3224 -18.3224 -18.2855 -18.2855 -18.2628 -18.2628
   -17.7761 -17.7761 -17.7190 -17.7190 -17.6861 -17.6861 -17.6249 -17.6249
   -17.5978 -17.5978 -17.5704 -17.5704  -2.6296  -2.6296   4.3122   4.3122
     6.9830   6.9830   8.3633   8.3633  12.9841  12.9841  13.6549  13.6549
    15.3658  15.3658  16.4705  16.4705  19.0034  19.0034  21.1904  21.1904
    21.4529  21.4529  23.3365  23.3365  24.8134  24.8134  26.0669  26.0669

          k = 0.6250-0.3750 0.8750 (  5948 PWs)   bands (ev):

  -161.3293-161.3293-161.3279-161.3279-110.2170-110.2170-110.2133-110.2133
  -105.8709-105.8709-105.8676-105.8676-105.8639-105.8639-105.8592-105.8592
   -18.3402 -18.3402 -18.3169 -18.3169 -18.2909 -18.2909 -18.2588 -18.2588
   -17.7618 -17.7618 -17.7265 -17.7265 -17.6905 -17.6905 -17.6353 -17.6353
   -17.5920 -17.5920 -17.5648 -17.5648  -1.7235  -1.7235   2.6514   2.6514
     6.2110   6.2110   7.8220   7.8220  13.1821  13.1821  14.1538  14.1538
    15.7366  15.7366  17.0879  17.0879  20.3525  20.3525  20.7111  20.7111
    22.5379  22.5379  24.1138  24.1138  25.4873  25.4873  26.5935  26.5935

          k = 0.5000-0.2500 0.7500 (  5936 PWs)   bands (ev):

  -161.3297-161.3297-161.3286-161.3286-110.2164-110.2164-110.2135-110.2135
  -105.8712-105.8712-105.8660-105.8660-105.8640-105.8640-105.8596-105.8596
   -18.3408 -18.3408 -18.3143 -18.3143 -18.2927 -18.2927 -18.2575 -18.2575
   -17.7565 -17.7565 -17.7267 -17.7267 -17.6936 -17.6936 -17.6396 -17.6396
   -17.5920 -17.5920 -17.5608 -17.5608  -1.0940  -1.0940   1.7099   1.7099
     6.0104   6.0104   7.5773   7.5773  13.1339  13.1339  14.0621  14.0621
    16.7797  16.7797  18.0278  18.0278  18.6361  18.6361  21.8653  21.8653
    22.6001  22.6001  23.2536  23.2536  26.7594  26.7594  27.7318  27.7318

          k = 0.7500-0.2500 1.0000 (  5957 PWs)   bands (ev):

  -161.3297-161.3297-161.3286-161.3286-110.2164-110.2164-110.2135-110.2135
  -105.8706-105.8706-105.8677-105.8677-105.8625-105.8625-105.8599-105.8599
   -18.3377 -18.3377 -18.3211 -18.3211 -18.2862 -18.2862 -18.2610 -18.2610
   -17.7567 -17.7567 -17.7285 -17.7285 -17.6886 -17.6886 -17.6434 -17.6434
   -17.5906 -17.5906 -17.5616 -17.5616  -1.3098  -1.3098   2.3304   2.3304
     6.2399   6.2399   6.9153   6.9153  12.4677  12.4677  13.2294  13.2294
    16.5040  16.5040  19.1143  19.1143  21.3389  21.3389  21.5708  21.5708
    23.9813  23.9813  24.6458  24.6458  25.3080  25.3080  26.2881  26.2881

          k = 0.6250-0.1250 0.8750 (  5934 PWs)   bands (ev):

  -161.3289-161.3289-161.3283-161.3283-110.2160-110.2160-110.2143-110.2143
  -105.8712-105.8712-105.8667-105.8667-105.8641-105.8641-105.8596-105.8596
   -18.3392 -18.3392 -18.3197 -18.3197 -18.2882 -18.2882 -18.2576 -18.2576
   -17.7562 -17.7562 -17.7208 -17.7208 -17.6881 -17.6881 -17.6582 -17.6582
   -17.5906 -17.5906 -17.5546 -17.5546  -0.4376  -0.4376   1.3072   1.3072
     5.5051   5.5051   6.7070   6.7070  12.9382  12.9382  15.0735  15.0735
    15.9410  15.9410  18.1827  18.1827  19.9301  19.9301  22.8258  22.8258
    23.4196  23.4196  24.5260  24.5260  27.0438  27.0438  27.6187  27.6187

          k = 0.5000 0.0000 0.7500 (  5940 PWs)   bands (ev):

  -161.3296-161.3296-161.3287-161.3287-110.2164-110.2164-110.2139-110.2139
  -105.8715-105.8715-105.8665-105.8665-105.8639-105.8639-105.8595-105.8595
   -18.3403 -18.3403 -18.3176 -18.3176 -18.2906 -18.2906 -18.2566 -18.2566
   -17.7574 -17.7574 -17.7215 -17.7215 -17.6890 -17.6890 -17.6547 -17.6547
   -17.5914 -17.5914 -17.5553 -17.5553  -0.8012  -0.8012   1.7125   1.7125
     5.3293   5.3293   7.1103   7.1103  13.3739  13.3739  15.3598  15.3598
    15.8411  15.8411  17.8422  17.8422  19.2179  19.2179  20.6942  20.6942
    24.5832  24.5832  24.7111  24.7111  26.2142  26.2142  27.8619  27.8619

          k =-0.2500-1.0000 0.0000 (  5934 PWs)   bands (ev):

  -161.3292-161.3292-161.3292-161.3292-110.2148-110.2148-110.2147-110.2147
  -105.8701-105.8701-105.8672-105.8672-105.8628-105.8628-105.8600-105.8600
   -18.3356 -18.3356 -18.3236 -18.3236 -18.2829 -18.2829 -18.2618 -18.2618
   -17.7531 -17.7531 -17.7260 -17.7260 -17.6776 -17.6776 -17.6664 -17.6664
   -17.5863 -17.5863 -17.5572 -17.5572   0.3893   0.3893   0.4077   0.4077
     6.1574   6.1574   6.2242   6.2242  12.5132  12.5132  12.5643  12.5643
    18.6797  18.6797  18.7618  18.7618  22.2081  22.2081  22.3571  22.3571
    24.0339  24.0339  24.1047  24.1047  27.4687  27.4687  27.4796  27.4796

          k =-0.5000-1.0000 0.0000 (  5940 PWs)   bands (ev):

  -161.3266-161.3266-161.3266-161.3266-110.2157-110.2157-110.2157-110.2157
  -105.8715-105.8715-105.8668-105.8668-105.8652-105.8652-105.8605-105.8605
   -18.3393 -18.3393 -18.3219 -18.3219 -18.2874 -18.2874 -18.2568 -18.2568
   -17.7572 -17.7572 -17.7158 -17.7158 -17.6829 -17.6829 -17.6708 -17.6708
   -17.5916 -17.5916 -17.5513 -17.5513   0.4428   0.4428   0.4700   0.4700
     5.7342   5.7342   5.8184   5.8184  15.2056  15.2056  15.3491  15.3491
    15.4292  15.4292  15.4457  15.4457  22.1892  22.1892  22.3383  22.3383
    24.1118  24.1118  24.2168  24.2168  27.6178  27.6178  27.6475  27.6475

     highest occupied, lowest unoccupied level (ev):    10.1260   10.9075

!    total energy              =   -1105.33786940 Ry
     estimated scf accuracy    <          3.4E-12 Ry

     convergence has been achieved in   2 iterations

     Using ACE for calculation of exact exchange
     ACE projected onto    64 (nbndproj) and applied to    64 (nbnd) bands

!!   total energy              =   -1105.33786940 Ry
     Harris-Foulkes estimate   =   -1105.33786940 Ry
     est. exchange err (dexx)  =          1.4E-12 Ry
     - averaged Fock potential =      41.70041075 Ry
     + Fock energy (ACE)       =     -20.85020433 Ry

     EXX self-consistency reached

     Writing all to output data dir ./tmp/ge.save/
 
     init_run     :      0.16s CPU      0.61s WALL (       1 calls)
     electrons    :     11.46s CPU     12.81s WALL (       7 calls)

     Called by init_run:
     aceinit0     :      0.00s CPU      0.00s WALL (       1 calls)
     wfcinit      :      0.11s CPU      0.54s WALL (       1 calls)
     potinit      :      0.02s CPU      0.02s WALL (       1 calls)
     hinit0       :      0.01s CPU      0.02s WALL (       1 calls)

     Called by electrons:
     c_bands      :      9.96s CPU     10.30s WALL (      23 calls)
     sum_band     :      1.13s CPU      1.17s WALL (      23 calls)
     v_of_rho     :      0.19s CPU      0.20s WALL (      21 calls)
     mix_rho      :      0.02s CPU      0.03s WALL (      23 calls)

     Called by c_bands:
     init_us_2    :      0.04s CPU      0.04s WALL (     188 calls)
     init_us_2:cp :      0.04s CPU      0.04s WALL (     188 calls)
     cegterg      :      8.35s CPU      8.60s WALL (      92 calls)

     Called by *egterg:
     cdiaghg      :      1.12s CPU      1.14s WALL (     305 calls)
     h_psi        :      6.11s CPU      6.72s WALL (     349 calls)
     g_psi        :      0.02s CPU      0.02s WALL (     253 calls)

     Called by h_psi:
     h_psi:calbec :      0.23s CPU      0.67s WALL (     349 calls)
     vloc_psi     :      5.11s CPU      5.25s WALL (     349 calls)
     add_vuspsi   :      0.35s CPU      0.36s WALL (     349 calls)

     General routines
     calbec       :      0.52s CPU      0.96s WALL (     715 calls)
     fft          :      0.04s CPU      0.05s WALL (     313 calls)
     ffts         :      0.01s CPU      0.01s WALL (      92 calls)
     fftw         :      4.92s CPU      5.05s WALL (   77956 calls)
     fftc         :    818.80s CPU    839.97s WALL (14680064 calls)
     fftcw        :      1.55s CPU      1.64s WALL (   10752 calls)
 
     Parallel routines

     EXX routines
     exx_grid     :      0.01s CPU      0.02s WALL (       1 calls)
     exxinit      :     99.18s CPU    105.42s WALL (       7 calls)
     vexx         :   1168.89s CPU   1199.23s WALL (      28 calls)
     matcalc      :      0.29s CPU      0.29s WALL (     366 calls)
     aceupdate    :      0.02s CPU      0.02s WALL (      28 calls)
     vexxace      :      0.47s CPU      0.48s WALL (     286 calls)
     aceinit      :   1168.97s CPU   1199.30s WALL (      28 calls)
 
     PWSCF        :  21m22.57s CPU  22m12.80s WALL

 
   This run was terminated on:  14:21:37  23Apr2025            

=------------------------------------------------------------------------------=
   JOB DONE.
=------------------------------------------------------------------------------=
